LAMMPS (29 Sep 2021 - Update 2)
OMP_NUM_THREADS environment is not set. Defaulting to 1 thread. (src/comm.cpp:98)
  using 1 OpenMP thread(s) per MPI task
# initialize simulation
units           real
dimension       3
boundary        p p p
atom_style      full

# create water molecule topology
read_data       water_box.data
ERROR: Cannot open file water_box.data: No such file or directory (src/read_data.cpp:312)
Last command: read_data       water_box.data
