LAMMPS (28 Mar 2023)
OMP_NUM_THREADS environment is not set. Defaulting to 1 thread. (src/comm.cpp:98)
  using 1 OpenMP thread(s) per MPI task
Loaded 1 plugins from C:\Users\asus\AppData\Local\LAMMPS 64-bit 28Mar2023\plugins
units       real
atom_style  full
region      box block 0 15 0 15 0 15
create_box  2 box bond/types 1 angle/types 1             extra/bond/per/atom 2 extra/angle/per/atom 1 extra/special/per/atom 2
Created orthogonal box = (0 0 0) to (15 15 15)
  1 by 1 by 1 MPI processor grid

mass        1 15.9994
mass        2 1.008

pair_style   lj/cut/coul/cut 8.0
pair_coeff   1 1 0.1521 3.1507
pair_coeff   2 2 0.0    1.0

bond_style   zero
bond_coeff   1 0.9574

angle_style  zero
angle_coeff  1 104.52

molecule     water tip3p.mol
Read molecule template water:
  1 molecules
  0 fragments
  3 atoms with max type 2
  2 bonds with max type 1
  1 angles with max type 1
  0 dihedrals with max type 0
  0 impropers with max type 0
create_atoms 0 random 30 32564 NULL mol water 25367 #overlap 1.33
Created 90 atoms
  using lattice units in orthogonal box = (0 0 0) to (15 15 15)
  create_atoms CPU = 0.008 seconds



fix          rigid all shake 0.001 10 10000 b 1 a 1
Finding SHAKE clusters ...
       0 = # of size 2 clusters
       0 = # of size 3 clusters
       0 = # of size 4 clusters
      30 = # of frozen angles
  find clusters CPU = 0.001 seconds
#minimize     0.0 0.0 1000 10000
run 0 post no
WARNING: No fixes with time integration, atoms won't move (src/verlet.cpp:60)
Generated 1 of 1 mixed pair_coeff terms from geometric mixing rule
Neighbor list info ...
  update: every = 1 steps, delay = 0 steps, check = yes
  max neighbors/atom: 2000, page size: 100000
  master list distance cutoff = 10
  ghost atom cutoff = 10
  binsize = 5, bins = 3 3 3
  1 neighbor lists, perpetual/occasional/extra = 1 0 0
  (1) pair lj/cut/coul/cut, perpetual
      attributes: half, newton on
      pair build: half/bin/newton
      stencil: half/bin/3d
      bin: standard
SHAKE stats (type/ave/delta/count) on step 0
Bond:   1   0.957198  2.33147e-15       60
Angle:  1   104.52    1.84741e-13       30
Per MPI rank memory allocation (min/avg/max) = 7.56 | 7.56 | 7.56 Mbytes
   Step          Temp          E_pair         E_mol          TotEng         Press     
         0   0              62575.415      0              62575.415      1.3461441e+154
Loop time of 0 on 1 procs for 0 steps with 90 atoms


reset_timestep 0
velocity    all create 300.0 5463576
fix         1 all npt temp 300.0 300.0 100.0 iso 0.0 0.0 1000.0
fix         4 all temp/rescale 1 300.0 300.0 0.1 1.0
#fix      integrate all nvt temp 300 300 1.0

dump         1 all custom 100 water.lammpstrj id type x y z q
thermo_style custom step temp press etotal pe
thermo 100
timestep    0.01
run         2000000
Generated 1 of 1 mixed pair_coeff terms from geometric mixing rule
SHAKE stats (type/ave/delta/count) on step 0
Bond:   1   0.9574    2.9976e-15        60
Angle:  1   104.52    3.41061e-13       30
Per MPI rank memory allocation (min/avg/max) = 8.814 | 8.814 | 8.814 Mbytes
   Step          Temp          Press          TotEng         PotEng    
         0   300            4817662.2      62606.16       62553.4      
       100   300            2443285.2      33000.907      32948.147    
       200   300            1570614        22153.217      22100.457    
       300   300            1069439.8      15744.355      15691.594    
       400   300            745759.5       11363.287      11310.526    
       500   300            529701.26      8285.626       8232.8657    
       600   300            381816.33      5943.9896      5891.2293    
       700   300            280410.26      4422.7093      4369.9489    
       800   300            208854.45      3280.2968      3227.5365    
       900   300            157360.32      2385.3403      2332.5799    
      1000   300            120933.22      1888.0931      1835.3328    
      1100   300            94362.586      1567.8835      1515.1231    
      1200   300            74754.184      1381.2059      1328.4455    
      1300   300            59282.934      1117.2091      1064.4488    
      1400   300            47589.138      935.02955      882.26921    
      1500   300            38443.256      782.74927      729.98893    
      1600   300            31896.872      771.84035      719.08001    
      1700   300            26741.613      771.13308      718.37275    
      1800   300            22520.475      753.30945      700.54912    
      1900   300            19235.099      757.3459       704.58557    
      2000   300            16477.603      736.63928      683.87894    
      2100   300            14138.315      695.94873      643.18839    
      2200   300            12349.889      691.17331      638.41297    
      2300   300            10649.093      641.39829      588.63795    
      2400   300            9221.0617      596.11031      543.34997    
      2500   300            7628.1099      475.22577      422.46543    
      2600   300            6133.397       335.73464      282.9743     
      2700   300            5465.904       342.90192      290.14158    
      2800   300            4586.8992      286.97788      234.21755    
      2900   300            3728.9464      211.15483      158.39449    
      3000   300            2953.4554      136.64777      83.887429    
      3100   300            2776.5102      178.54979      125.78946    
      3200   300            2491.2024      185.18858      132.42824    
      3300   300            2220.5473      185.39884      132.6385     
      3400   300            1914.5981      171.78918      119.02884    
      3500   300            1758.5566      180.4138       127.65346    
      3600   300            1833.1988      232.84483      180.08449    
      3700   300            1763.5256      256.83198      204.07164    
      3800   300            1335.6654      194.8191       142.05876    
      3900   300            717.62248      82.855581      30.095243    
      4000   300            539.46956      65.310425      12.550087    
      4100   300            489.12246      69.829942      17.069604    
      4200   300            210.51443      24.17263      -28.587708    
      4300   300.08979      296.40295      65.587335      12.811206    
      4400   300.06716      17.968651      13.615075     -39.157074    
      4500   300.06186      5.7573848      19.613669     -33.157549    
      4600   300.05308     -67.931052      11.281703     -41.48797     
      4700   300.09087     -126.40838      3.1280519     -49.648267    
      4800   300           -210.06691     -4.9158058     -57.676144    
      4900   300.03371     -468.99895     -56.078353     -108.84462    
      5000   300.09536     -460.74637     -56.678566     -109.45567    
      5100   300.09217     -644.37276     -93.311783     -146.08833    
      5200   300.07902     -764.42888     -115.45094     -168.22518    
      5300   300.0831      -870.24861     -137.60376     -190.37871    
      5400   300           -846.61686     -123.90746     -176.6678     
      5500   300.04809     -660.10011     -74.152359     -126.92116    
      5600   300.08911     -734.45141     -89.363593     -142.1396     
      5700   300           -860.63324     -111.78827     -164.54861    
      5800   300.05096     -905.59347     -112.53309     -165.3024     
      5900   300.05025     -1076.8183     -149.45087     -202.22004    
      6000   300.08104     -1071.3773     -150.2135      -202.98809    
      6100   300           -1153.2173     -165.24788     -218.00821    
      6200   300           -1269.9391     -187.38117     -240.1415     
      6300   300.05247     -1188.7475     -166.11064     -218.8802     
      6400   300.04773     -1197.2754     -166.5201      -219.28883    
      6500   300.0543      -1340.9438     -195.82239     -248.59228    
      6600   300.07069     -1407.4388     -210.63701     -263.40977    
      6700   300           -1549.984      -239.85528     -292.61562    
      6800   300           -1480.7092     -225.88487     -278.64521    
      6900   300           -1439.7691     -211.92286     -264.6832     
      7000   300.08963     -1387.0821     -197.97264     -250.74874    
      7100   300.04211     -1497.0818     -220.19094     -272.95869    
      7200   300.0943      -1570.329      -235.35946     -288.13638    
      7300   300           -1538.4297     -221.7772      -274.53754    
      7400   300           -1550.9506     -222.58414     -275.34448    
      7500   300.04062     -1386.2176     -180.02091     -232.78839    
      7600   300.07583     -1449.048      -195.12372     -247.8974     
      7700   300           -1427.6979     -188.53142     -241.29175    
      7800   300.09274     -1594.83       -225.16013     -277.93677    
      7900   300           -1511.2258     -203.96614     -256.72647    
      8000   300.08981     -1321.5151     -161.05173     -213.82787    
      8100   300.02148     -1274.5165     -146.97993     -199.74405    
      8200   300.09968     -1412.8022     -183.4257      -236.20357    
      8300   300.04157     -1523.2675     -212.62018     -265.38783    
      8400   300.08001     -1526.9639     -212.95147     -265.72588    
      8500   300.06857     -1544.215      -213.26088     -266.03328    
      8600   300.03623     -1518.1845     -206.26588     -259.03259    
      8700   300.0307      -1616.3677     -228.10105     -280.86678    
      8800   300.03792     -1825.9785     -278.69261     -331.45962    
      8900   300.00457     -1909.6208     -300.36177     -353.12291    
      9000   299.95095     -1906.1285     -300.34677     -353.09848    
      9100   299.91805     -1900.9241     -300.30043     -353.04636    
      9200   300.03466     -1972.0263     -314.75901     -367.52544    
      9300   300.02046     -2032.6241     -329.3304      -382.09433    
      9400   300.04757     -2123.2707     -351.17957     -403.94828    
      9500   300.01287     -1940.8133     -308.13641     -360.89901    
      9600   300.08572     -2059.7887     -337.19302     -389.96844    
      9700   300.02973     -1876.1965     -294.09362     -346.85919    
      9800   300.03901     -1838.9768     -287.22149     -339.98869    
      9900   300.05354     -1900.2581     -301.98024     -354.74999    
SHAKE stats (type/ave/delta/count) on step 10000
Bond:   1   0.957401  1.021e-10         60
Angle:  1   104.52    4.02163e-09       30
     10000   300.02212     -1876.9542     -295.1431      -347.90733    
     10100   300.02169     -1815.2564     -281.12775     -333.89191    
     10200   300.01845     -1926.6668     -310.3986      -363.16218    
     10300   300.08774     -1699.9333     -260.2159      -312.99167    
     10400   300.03692     -1312.5281     -166.68774     -219.45457    
     10500   300           -1380.1033     -181.51404     -234.27437    
     10600   300.02506     -1348.1983     -174.73848     -227.50323    
     10700   300.0493      -1171.1539     -131.83661     -184.60562    
     10800   300.06241     -1139.5513     -125.04431     -177.81563    
     10900   300.01558     -1469.4417     -204.78647     -257.54955    
     11000   300.07641     -1274.3891     -161.6151      -214.38887    
     11100   300.05202     -1045.4032     -103.97093     -156.74042    
     11200   300.00856     -1042.3177     -104.07258     -156.83442    
     11300   300.05319     -1011.5938     -96.90464      -149.67433    
     11400   300.04763     -1045.8642     -104.19007     -156.95878    
     11500   300.03792     -1008.8348     -97.113481     -149.88049    
     11600   300.0732      -913.96651     -75.569357     -128.34257    
     11700   299.9813      -936.58649     -82.803894     -135.56094    
     11800   299.93372     -1141.7103     -133.32346     -186.07214    
     11900   299.98876     -1307.959      -176.53292     -229.29128    
     12000   300           -1243.6433     -161.92497     -214.68531    
     12100   299.97599     -1268.9115     -168.95143     -221.70755    
     12200   299.90448     -1416.6944     -204.93697     -257.68051    
     12300   299.97472     -1323.4309     -183.18394     -235.93983    
     12400   299.98788     -1154.4887     -139.92761     -192.68582    
     12500   300.03543     -1185.9571     -147.25067     -200.01724    
     12600   300.01849     -1111.5614     -132.97312     -185.73671    
     12700   300.04348     -1172.0386     -147.64447     -200.41245    
     12800   300.08604     -1400.0624     -205.52221     -258.29768    
     12900   300.04597     -1468.8448     -220.02548     -272.7939     
     13000   300           -1434.7422     -213.02415     -265.78449    
     13100   300.01304     -1516.5633     -234.77932     -287.54195    
     13200   299.99014     -1514.7121     -234.6851      -287.44371    
     13300   299.94519     -1562.6185     -248.98388     -301.73458    
     13400   299.93349     -1228.3118     -169.3829      -222.13154    
     13500   299.94848     -1193.0283     -161.99091     -214.74219    
     13600   299.93638     -1268.7344     -176.15594     -228.90509    
     13700   299.92139     -1261.9933     -175.80047     -228.54698    
     13800   299.92004     -1287.3598     -189.81423     -242.56051    
     13900   299.90948     -1167.2198     -160.48795     -213.23237    
     14000   299.93934     -1098.1704     -145.53326     -198.28293    
     14100   299.96232     -906.11564     -101.66629     -154.42       
     14200   299.91345     -643.02987     -43.259678     -96.004795    
     14300   300           -538.40313     -20.898251     -73.658589    
     14400   299.94145     -501.21186     -13.102018     -65.852059    
     14500   299.9741      -388.5026       8.9861356     -43.769648    
     14600   299.9309      -312.52699      23.774054     -28.974132    
     14700   299.97316     -298.23097      24.159024     -28.596593    
     14800   299.97082     -332.60953      10.177799     -42.577407    
     14900   299.96733     -286.52092      17.896573     -34.858019    
     15000   299.92084     -312.91939      11.124278     -41.622139    
     15100   299.95321     -61.061869      69.246671      16.494562    
     15200   299.95793      161.47648      120.07615      67.323209    
     15300   299.98262     -171.2223       33.695748     -19.061533    
     15400   300.00344      51.314594      84.241568      31.480625    
     15500   300.097        157.27879      105.75308      52.975688    
     15600   300.03536      219.77549      119.95838      67.191828    
     15700   300            93.607995      83.575735      30.815397    
     15800   300.04861      73.386569      76.026784      23.257896    
     15900   300.01622      84.299438      75.692019      22.928828    
     16000   300.05765      138.31266      82.59686       29.826383    
     16100   300.09599      362.3145       132.85394      80.076719    
     16200   300.03976      231.96587      96.498736      43.731406    
     16300   300.05775      308.95486      110.67942      57.908922    
     16400   300.07596      265.72828      96.014118      43.240422    
     16500   300.03459      283.36304      95.785773      43.019352    
     16600   300.03319      201.21249      73.906241      21.140067    
     16700   300.0445       426.30163      124.20042      71.432255    
     16800   300.05243      469.49456      131.24349      78.473928    
     16900   300.01994      451.13643      123.85503      71.091182    
     17000   300.06936      519.62968      138.11987      85.347339    
     17100   300.0717       701.52619      181.11938      128.34643    
     17200   300.09997      650.70988      166.30475      113.52683    
     17300   300.08949      746.83133      187.61338      134.8373     
     17400   300.02356      832.08364      208.87764      156.11316    
     17500   300            584.55789      150.64373      97.883389    
     17600   300.03927      487.54795      128.34764      75.580397    
     17700   300.08334      356.18215      98.727598      45.952603    
     17800   300            432.00454      119.55033      66.789994    
     17900   300.04066      571.68812      154.87964      102.11215    
     18000   300.09881      897.17032      233.46893      180.69121    
     18100   300.05237      820.79264      218.08727      165.31772    
     18200   300            714.52255      195.48564      142.72531    
     18300   300            607.04255      172.87943      120.11909    
     18400   300            678.58318      193.56967      140.80933    
     18500   300            662.96313      192.49719      139.73685    
     18600   300            586.11436      176.99481      124.23447    
     18700   300            272.81335      103.82041      51.060076    
     18800   300            46.742996      52.250562     -0.50977546   
     18900   300            110.54961      72.84775       20.087412    
     19000   300.09286      202.8238       100.80251      48.02584     
     19100   300           -67.17265       42.349053     -10.411285    
     19200   300           -174.22965      20.120525     -32.639813    
     19300   300           -139.84901      34.010571     -18.749767    
     19400   300.03999     -10.862829      69.468427      16.701056    
     19500   300.03326     -5.7023055      76.012721      23.246535    
     19600   300.08821      11.201735      82.605085      29.829233    
     19700   300.04243      114.65672      110.99637      58.228573    
     19800   300.02918      127.37661      117.91412      65.148646    
     19900   300.01054      170.00781      132.07568      79.313485    
SHAKE stats (type/ave/delta/count) on step 20000
Bond:   1   0.9574    1.12932e-12       60
Angle:  1   104.52    1.11896e-10       30
     20000   300.07271      135.46416      124.68293      71.909805    
     20100   300.09361      127.518        124.54374      71.766934    
     20200   300.06926      115.74129      124.49606      71.723546    
     20300   300.01125      51.803181      109.96199      57.199677    
     20400   300.07669     -29.030636      95.427999      42.654175    
     20500   300.03104     -18.522574      102.50915      49.74335     
     20600   300.04761     -222.99558      51.794487     -0.97422424   
     20700   300.08503     -476.5536      -6.1603833     -58.935675    
     20800   300.03711     -453.20834      0.86474028    -51.902123    
     20900   300.00873     -459.14004      0.65104494    -52.110828    
     21000   300           -408.95244      14.891755     -37.868583    
     21100   300.06873     -124.99999      86.777571      34.005145    
     21200   300.01769      9.9763165      122.51764      69.754194    
     21300   300           -33.047618      114.95289      62.192548    
     21400   300.06096     -81.283459      107.36338      54.592322    
     21500   300.05469     -119.87988      99.667867      46.897911    
     21600   300.0899       22.248264      135.19161      82.415458    
     21700   300.09785      97.513659      156.3123       103.53476    
     21800   300.03623      50.507974      148.4575       95.690791    
     21900   300.02799      38.570391      147.87084      95.105576    
     22000   300.0521      -19.269918      132.96344      80.193941    
     22100   300.03236     -176.84791      96.505591      43.739562    
     22200   300.0709      -212.47223      89.136367      36.36356     
     22300   299.99578     -119.09986      110.7818       58.022201    
     22400   299.94823     -209.64768      89.274584      36.52335     
     22500   299.93693     -305.00178      60.741771      7.9925246    
     22600   299.92039     -182.99459      90.015916      37.269579    
     22700   300           -293.86453      61.695805      8.9354671    
     22800   300           -399.5338       33.422329     -19.338009    
     22900   299.96887     -633.6417      -23.819902     -76.574764    
     23000   299.96952     -708.07343     -44.901296     -97.656273    
     23100   299.97785     -906.73778     -94.9802       -147.73664    
     23200   299.97878     -897.73432     -94.619125     -147.37573    
     23300   299.90265     -862.11677     -87.081265     -139.82448    
     23400   300           -805.08258     -72.384631     -125.14497    
     23500   299.96938     -709.31293     -50.567311     -103.32226    
     23600   299.97354     -703.51363     -50.515439     -103.27112    
     23700   300.04277     -760.43008     -65.047525     -117.81538    
     23800   300           -580.4121      -22.10935      -74.869688    
     23900   300.03781     -735.53085     -58.780457     -111.54744    
     24000   300.0776      -510.96229     -1.7273568     -54.501342    
     24100   300           -367.31354      33.613755     -19.146583    
     24200   300.04132     -142.67674      90.603829      37.836224    
     24300   300.03109     -386.40954      32.133313     -20.632493    
     24400   300.0309      -392.15104      31.578142     -21.18763     
     24500   300.02024     -78.773069      110.50583      57.741937    
     24600   300.02229      5.2287436      131.75484      78.990582    
     24700   300.04817      27.521904      138.56546      85.796649    
     24800   300.05183      77.166661      152.5403       99.770852    
     24900   300.02065      134.81308      166.54539      113.78142    
     25000   300.07842      70.91422       151.78467      99.01054     
     25100   300.03007      164.15599      173.15239      120.38676    
     25200   300.02207      260.26251      194.56629      141.80207    
     25300   300.05392      107.72294      158.3712       105.60138    
     25400   300.08708      52.782768      143.8829       91.107246    
     25500   300.08278      20.074847      136.59633      83.82143     
     25600   300.00994     -260.76191      64.403774      11.641687    
     25700   299.95986     -162.0451       86.075886      33.322608    
     25800   300           -188.50263      78.87701       26.116672    
     25900   299.95423     -118.25545      93.386577      40.634289    
     26000   299.93629     -24.771233      115.1876       62.438471    
     26100   299.92923      176.17372      158.66194      105.91405    
     26200   300            267.12581      180.40631      127.64597    
     26300   299.96973      190.0986       158.88791      106.13289    
     26400   299.91207      279.69784      180.69252      127.94764    
     26500   299.97434      468.96756      224.09247      171.33664    
     26600   299.95573      324.11244      188.13897      135.38641    
     26700   299.9047       399.1626       202.78559      150.04201    
     26800   299.92898      352.48033      188.5222       135.77435    
     26900   299.9239       313.32144      174.1999       121.45295    
     27000   300            236.91499      152.7191       99.958766    
     27100   299.98744      276.90282      160.08671      107.32858    
     27200   299.95076      161.37749      131.40239      78.650708    
     27300   299.9633       273.33685      153.19077      100.43689    
     27400   300            173.58094      124.46953      71.709191    
     27500   300           -98.793516      52.508673     -0.25166474   
     27600   299.98499     -72.189228      52.738102     -0.019595525  
     27700   300           -17.380132      60.185082      7.4247445    
     27800   299.90217     -8.2672365      60.392332      7.6492003    
     27900   299.98553      72.217347      75.037956      22.280163    
     28000   299.90918      55.420116      67.993993      15.249627    
     28100   299.95389      147.15326      82.599417      29.847188    
     28200   299.97434      395.42632      140.47211      87.71628     
     28300   300.05872      289.64507      111.60618      58.835517    
     28400   300.0589       356.53495      125.95693      73.186238    
     28500   300.05448      102.97916      60.917161      8.1472427    
     28600   300.09046      87.33587       53.616861      0.84061349   
     28700   300.07981     -54.169168      17.35087      -35.423504    
     28800   300.07761     -43.777207      17.134659     -35.639328    
     28900   300.07002     -1.3752196      24.081578     -28.691074    
     29000   300.01267      10.262934      23.846666     -28.915899    
     29100   300            25.532987      23.626234     -29.134104    
     29200   300.01575      11.659507      16.211949     -36.551159    
     29300   300.01866      220.27899      66.433984      13.670364    
     29400   300.08144      72.739393      30.012245     -22.762415    
     29500   300.0144       15.773788      15.303422     -37.459449    
     29600   300.03287     -32.983054      0.63115009    -52.134969    
     29700   300.08858     -3.3857191      7.6556929     -45.120223    
     29800   300.01476      207.08468      57.924394      5.1614607    
     29900   300.02444      351.66557      93.777197      41.012561    
SHAKE stats (type/ave/delta/count) on step 30000
Bond:   1   0.9574    7.07545e-13       60
Angle:  1   104.52    5.67297e-11       30
     30000   300.04141      358.1508       93.500934      40.733314    
     30100   300            183.1479       49.80947      -2.9508683    
     30200   300.01893      265.92927      71.085768      18.322101    
     30300   300.09394      200.41133      56.24765       3.4707914    
     30400   300.09136      149.33265      41.416477     -11.359929    
     30500   300.09262      262.72963      69.864651      17.088025    
     30600   300.09318      446.1701       112.75357      59.976847    
     30700   300.08671      532.91498      133.97834      81.20275     
     30800   300.04437      560.128        140.88053      88.112387    
     30900   300.09903      379.2244       97.373876      44.596122    
     31000   300.01233      563.48344      140.57758      87.815078    
     31100   300.00748      405.85736      104.48042      51.718768    
     31200   299.98856      489.73887      126.19563      73.437302    
     31300   299.97937      363.78498      97.460517      44.703807    
     31400   300            402.72535      104.91447      52.154133    
     31500   299.97801      414.06367      105.22531      52.468841    
     31600   299.92242      492.97371      120.02165      67.274959    
     31700   299.94667      443.07859      105.85017      53.09921     
     31800   299.91436      389.9772       91.610223      38.864946    
     31900   299.92401      369.15993      84.591399      31.844424    
     32000   299.9718       210.83384      41.555704     -11.199675    
     32100   299.92283      90.388604      12.901678     -39.845088    
     32200   299.95939      139.45805      20.36012      -32.393076    
     32300   299.91378      160.33698      20.517862     -32.227313    
     32400   299.9534       467.01024      92.773205      40.021063    
     32500   300            535.69867      107.17855      54.418215    
     32600   300.06281      826.66276      179.13951      126.36813    
     32700   300            736.24696      157.17079      104.41045    
     32800   300.05093      792.40842      171.19571      118.42642    
     32900   300            848.2027       185.15508      132.39474    
     33000   300.06801      864.31118      191.79927      139.02697    
     33100   300            655.72644      140.64108      87.880741    
     33200   300            637.87399      140.00869      87.248353    
     33300   300.03483      750.90903      168.24778      115.48132    
     33400   300.08635      522.10059      117.03615      64.260624    
     33500   300            353.48564      80.150483      27.390145    
     33600   300.0983       265.69238      64.853097      12.075471    
     33700   300           -48.181431     -8.1782694     -60.938607    
     33800   300.0404      -242.51767     -52.219321     -104.98676    
     33900   300            41.967293      19.294643     -33.465694    
     34000   300.09781      30.963342      18.786889     -33.990651    
     34100   300.09346      99.908927      40.099699     -12.677075    
     34200   300.03839      2.6788823      18.149759     -34.617329    
     34300   300.0141      -7.7859166      17.993192     -34.769626    
     34400   300.04854      40.591532      32.364957     -20.403917    
     34500   300.04065     -30.029703      17.849757     -34.917729    
     34600   300.02044      10.207674      32.242533     -20.5214      
     34700   299.99287      90.966455      53.903769      1.1446844    
     34800   300.0244       375.68462      126.07364      73.309011    
     34900   300.09719      594.24073      183.76663      130.9892     
     35000   300.03958      565.78566      176.51978      123.75248    
     35100   300.01606      639.66094      198.1437       145.38054    
     35200   299.92525      700.32424      219.78705      167.03986    
     35300   299.9275       509.13421      176.52744      123.77985    
     35400   299.95973      645.03961      212.64197      159.88872    
     35500   300.02133      571.77073      198.19671      145.43262    
     35600   299.9348       511.7293       183.74981      131.00094    
     35700   299.92711      464.24213      176.55829      123.81077    
     35800   299.91504      431.58621      169.42526      116.67987    
     35900   299.94586      453.84354      176.816        124.06518    
     36000   299.92214      383.74563      162.60855      109.8619     
     36100   299.93274      225.4885       119.40293      66.654422    
     36200   300            225.73292      119.50387      66.743529    
     36300   299.94048      254.10034      126.82376      74.073891    
     36400   299.93011      256.01283      127.04385      74.295807    
     36500   299.92879      138.8542       98.435388      45.687573    
     36600   299.96291     -213.03265      12.146102     -40.607713    
     36700   299.9272      -446.24742     -45.190696     -97.93823     
     36800   299.92639     -435.24243     -44.767668     -97.51506     
     36900   299.90964     -452.15025     -51.51787      -104.26232    
     37000   299.92824     -83.198841      35.640444     -17.107275    
     37100   299.93886     -74.393263      36.241883     -16.507701    
     37200   299.94791     -116.28089      22.315595     -30.435582    
     37300   299.93418     -166.78098      8.2619434     -44.486819    
     37400   299.96871      216.6676       102.41222      49.657384    
     37500   299.96109      83.481961      66.525259      13.771765    
     37600   299.91975      64.346617      59.355777      6.609552     
     37700   299.95808      38.740668      52.150395     -0.60257036   
     37800   300.03534      136.42728      73.798016      21.031462    
     37900   300.03157      15.287076      44.792077     -7.9738129    
     38000   300.0465       132.42093      73.433365      20.66485     
     38100   300.06938      113.38002      65.881893      13.109353    
     38200   300.02681      197.50099      87.062206      34.297153    
     38300   300.03312      679.04465      201.98588      149.21972    
     38400   300.03657      987.1775       280.7708       228.00403    
     38500   300.08021      951.26355      272.84948      220.07503    
     38600   300            935.06296      272.02077      219.26043    
     38700   300.04601      810.88132      242.29472      189.52629    
     38800   300.08749      1068.3201      306.46562      253.6899     
     38900   300            1038.6325      298.46039      245.70005    
     39000   300.03872      843.05029      254.43402      201.66687    
     39100   300.078        892.16186      268.18569      215.41163    
     39200   300            757.14401      238.64674      185.8864     
     39300   300            807.62251      252.49563      199.73529    
     39400   300.0231       1029.0448      309.73808      256.97368    
     39500   300.09718      782.11765      251.70576      198.92833    
     39600   300.05289      676.37205      229.87838      177.10874    
     39700   299.97405      499.16408      186.51288      133.75711    
     39800   300            686.14916      237.17265      184.41231    
     39900   299.93524      614.36196      223.03299      170.28404    
SHAKE stats (type/ave/delta/count) on step 40000
Bond:   1   0.9574    7.81819e-13       60
Angle:  1   104.52    4.61142e-11       30
     40000   299.91421      526.14481      201.79881      149.05356    
     40100   299.96392      470.89017      187.95701      135.20302    
     40200   299.92857      462.03791      188.60827      135.8605     
     40300   300            462.07955      189.18667      136.42633    
     40400   299.93856      407.50821      175.31368      122.56414    
     40500   299.94206      606.84368      226.3642       173.61405    
     40600   299.90015      544.1228       212.36203      159.61925    
     40700   299.92476      542.69514      212.66305      159.91594    
     40800   299.93451      599.91255      227.30945      174.56063    
     40900   299.96246      593.67824      227.40872      174.65499    
     41000   299.99509      240.16688      140.82504      88.065566    
     41100   300.0886       295.13312      155.21838      102.44246    
     41200   300.09989      355.90441      169.55422      116.77631    
     41300   300.03542      406.97406      183.67853      130.91196    
     41400   300.02462      286.31756      154.42948      101.66481    
     41500   300.03443      77.308496      103.36355      50.597154    
     41600   300.06915      108.50209      110.09988      57.327382    
     41700   300.03852      139.33117      116.94495      64.17784     
     41800   300.01383      80.833694      102.21267      49.449903    
     41900   300           -6.080291       80.348121      27.587783    
     42000   300.06089      165.57911      123.48139      70.710347    
     42100   300.03491      227.59422      137.87514      85.108659    
     42200   299.99449      444.94996      188.40684      135.64747    
     42300   299.97989      475.97889      195.76116      143.00436    
     42400   299.95848      400.35012      174.28254      121.5295     
     42500   299.95439      484.95195      196.13746      143.38514    
     42600   299.97841      588.59571      218.06541      165.30887    
     42700   300            422.56042      175.12165      122.36131    
     42800   300            365.71094      161.00099      108.24065    
     42900   299.90901      435.19866      175.80179      123.05745    
     43000   299.91168      536.61504      197.84476      145.09995    
     43100   299.90981      260.0005       126.03239      73.287915    
     43200   299.95053      159.33639      97.555107      44.80347     
     43300   299.94751      150.51552      90.722645      37.971539    
     43400   299.99087      219.16073      105.35608      52.597347    
     43500   299.90368      82.736524      69.410567      16.66717     
     43600   299.98338     -134.81307      11.834074     -40.923341    
     43700   300.08335     -18.053185      40.738322     -12.036674    
     43800   300.05965     -178.0818      -2.6578768     -55.428706    
     43900   300.02782     -149.10883      4.3758098     -48.38942     
     44000   300.06589     -82.376549      18.500253     -34.271674    
     44100   300.03081     -32.067617      32.461145     -20.30461     
     44200   300.03592      26.431733      46.27052      -6.4961352    
     44300   300.08233      173.46721      81.683896      28.909079    
     44400   300            256.55748      102.54165      49.781308    
     44500   300.04895      243.25645      101.70668      48.937732    
     44600   300.09626      232.21417      100.88295      48.105679    
     44700   300            40.377437      56.750164      3.9898257    
     44800   300.04281      52.080324      63.206276      10.438408    
     44900   300.07414      151.50479      91.357857      38.584481    
     45000   300            167.48341      97.925817      45.165479    
     45100   300            184.43166      104.5253       51.764967    
     45200   300.02617      30.710443      67.932772      15.167832    
     45300   300.06035     -70.609134      45.869066     -6.9018846    
     45400   300.09863     -221.31947      9.4872966     -43.290388    
     45500   300.07922     -137.41919      30.95028      -21.823989    
     45600   300.07082     -167.35217      23.655927     -29.116865    
     45700   300.00396     -317.30654     -12.449739     -65.210773    
     45800   299.928       -534.8014      -62.972158     -115.71983    
     45900   299.915       -506.19623     -55.68498      -108.43037    
     46000   299.93091     -373.69308     -26.687635     -79.435822    
     46100   299.9158      -103.72879      38.547027     -14.198503    
     46200   299.90385     -105.26238      38.939756     -13.803672    
     46300   299.91345     -268.55316     -3.8943419     -56.639458    
     46400   299.90846     -163.07839      18.264098     -34.480141    
     46500   299.92259     -152.24348      18.858172     -33.888552    
     46600   300           -115.47323      26.784296     -25.976042    
     46700   299.94963     -42.082034      42.075645     -10.675834    
     46800   299.90576     -318.18863     -29.238285     -81.982049    
     46900   300           -204.32596     -6.7859318     -59.54627     
     47000   299.95761     -93.654619      15.656589     -37.096294    
     47100   299.91917      43.444421      45.243261     -7.5028614    
     47200   300            325.31934      110.91751      58.15717     
     47300   299.96156      261.70841      89.960616      37.207039    
     47400   299.92744      315.97158      97.832039      45.084462    
     47500   300            368.21593      105.69715      52.936815    
     47600   299.96302      220.50325      63.056767      10.302932    
     47700   299.9106       245.01361      63.629295      10.884679    
     47800   299.90978      261.937        64.077057      11.332586    
     47900   299.97995      303.16633      71.533844      18.777032    
     48000   299.96201      526.8562       122.1436       69.389944    
     48100   299.97391      536.78907      122.14107      69.385321    
     48200   300.05897      702.23147      165.23508      112.46438    
     48300   300.01523      637.61084      150.52546      97.762448    
     48400   300.04648      513.33788      121.38147      68.612955    
     48500   300.08043      558.74142      135.57153      82.797043    
     48600   300.03535      228.31735      56.009355      3.2427999    
     48700   300.03116      250.49732      63.078046      10.312228    
     48800   300.00607      217.29199      55.747048      2.9856424    
     48900   300.02362      214.8348       55.743659      2.9791668    
     49000   299.97902      231.14125      63.050456      10.293808    
     49100   299.91438      257.93903      70.336768      17.591489    
     49200   299.93678     -134.15081     -23.492273     -76.241492    
     49300   300.05843     -106.22741     -16.330324     -69.100937    
     49400   300.02672     -167.905       -30.932247     -83.697284    
     49500   300.02616     -279.78401     -52.925924     -105.69086    
     49600   300.03199     -382.32341     -75.100492     -127.86646    
     49700   300.02919     -704.43163     -147.78487     -200.55034    
     49800   300.03209     -609.66735     -119.44661     -172.2126     
     49900   300.03767     -559.55568     -105.61198     -158.37895    
SHAKE stats (type/ave/delta/count) on step 50000
Bond:   1   0.9574    4.8006e-13        60
Angle:  1   104.52    3.14628e-11       30
     50000   300.09016     -512.33192     -91.893471     -144.66966    
     50100   300           -355.81166     -49.397991     -102.15833    
     50200   300.03368     -455.98178     -71.696965     -124.46323    
     50300   300.03242     -433.91071     -65.071016     -117.83706    
     50400   300.06027     -438.14567     -65.636738     -118.40768    
     50500   300           -502.78472     -80.539088     -133.29943    
     50600   300.07966     -623.60719     -109.70002     -162.47437    
     50700   300.04958     -774.70867     -145.89522     -198.66427    
     50800   299.94881     -767.29389     -145.84035     -198.59168    
     50900   299.92342     -611.70865     -109.67957     -162.42644    
     51000   299.93266     -513.52847     -87.879072     -140.62757    
     51100   299.93996     -594.98854     -109.28466     -162.03444    
     51200   299.97993     -637.32781     -123.41595     -176.17276    
     51300   299.97997     -532.82058     -101.39414     -154.15096    
     51400   300           -611.75778     -122.70835     -175.46868    
     51500   299.95209     -719.15277     -151.18094     -203.93285    
     51600   300           -605.97621     -129.05072     -181.81105    
     51700   299.92021     -470.70808     -99.727342     -152.47365    
     51800   299.93032     -338.55688     -70.473236     -123.22132    
     51900   299.92788     -258.66619     -55.794534     -108.54219    
     52000   299.97911     -239.54379     -55.633423     -108.39009    
     52100   300.07301     -167.3981      -41.22005      -93.993229    
     52200   300.05599     -246.06545     -63.061013     -115.8312     
     52300   300           -149.42013     -41.742928     -94.503266    
     52400   300           -82.516133     -27.767006     -80.527344    
     52500   300.039       -82.308472     -28.380042     -81.147239    
     52600   300.07938     -81.150006     -29.049612     -81.82391     
     52700   300            49.474648      6.2721288     -46.488209    
     52800   300.04296     -273.46692     -73.905972     -126.67386    
     52900   300.08523     -341.58987     -89.106338     -141.88166    
     53000   300           -499.60849     -125.93155     -178.69189    
     53100   300.03729     -554.74199     -141.07678     -193.84367    
     53200   300.06831     -574.41118     -148.9141      -201.68645    
     53300   300.08931     -491.16294     -127.82324     -180.59929    
     53400   300.04073     -584.78151     -149.92237     -202.68987    
     53500   300.05182     -664.86236     -171.90595     -224.6754     
     53600   300.05559     -630.5664      -164.95312     -217.72323    
     53700   300           -720.24012     -186.91403     -239.67437    
     53800   300.02412     -963.52968     -244.92787     -297.69245    
     53900   300.00933     -934.23406     -237.89536     -290.65734    
     54000   300.05544     -825.68144     -209.17669     -261.94678    
     54100   300           -951.55997     -238.14187     -290.90221    
     54200   300.02831     -747.73908     -187.81483     -240.58015    
     54300   300.09756     -574.13706     -144.76519     -197.54269    
     54400   300.04089     -433.51758     -108.97128     -161.73881    
     54500   300.01405     -372.22867     -94.78755      -147.55036    
     54600   300.08516     -430.93182     -109.49455     -162.26986    
     54700   300.04488     -263.61441     -66.301633     -119.06986    
     54800   300.05086     -262.54273     -66.3196       -119.08888    
     54900   299.99883     -408.90403     -102.41101     -155.17115    
     55000   299.97976     -444.03015     -109.57812     -162.3349     
     55100   299.97509     -279.46131     -66.147538     -118.90349    
     55200   299.91901     -348.83774     -80.33986      -133.08595    
     55300   299.96813     -582.78515     -137.64323     -190.39796    
     55400   299.96609     -720.83422     -173.149       -225.90337    
     55500   299.9274      -713.98928     -172.50267     -225.25024    
     55600   300           -611.60395     -150.16392     -202.92426    
     55700   299.95292     -601.56281     -149.40201     -202.15407    
     55800   299.94719     -382.26199     -98.006444     -150.75749    
     55900   299.94251     -267.26404     -75.356127     -128.10635    
     56000   299.94037     -179.57937     -59.880533     -112.63038    
     56100   299.9403      -217.88898     -73.255299     -126.00514    
     56200   299.94588     -282.2186      -93.91737      -146.66819    
     56300   300           -261.40827     -93.009692     -145.77003    
     56400   299.95493     -572.41999     -171.59519     -224.3476     
     56500   300           -476.66082     -149.26872     -202.02906    
     56600   299.97083     -704.26749     -206.61527     -259.37047    
     56700   299.93802     -873.3101      -249.74491     -302.49434    
     56800   300.02142     -1046.8555     -293.01984     -345.78394    
     56900   300.05538     -996.34386     -278.70127     -331.47135    
     57000   300.03568     -1059.6136     -293.43785     -346.20446    
     57100   300.08138     -1143.6483     -315.48898     -368.26363    
     57200   300           -1276.4709     -344.88857     -397.64891    
     57300   300.03868     -1436.9693     -381.6288      -434.39594    
     57400   300.08202     -1505.2158     -396.77185     -449.54661    
     57500   300           -1501.8185     -390.28027     -443.04061    
     57600   300.09558     -1508.2388     -390.86637     -443.64352    
     57700   300.04906     -1661.2661     -427.48729     -480.25626    
     57800   300.04237     -1665.164      -427.90567     -480.67346    
     57900   300.01552     -1465.5623     -377.72709     -430.49015    
     58000   300.09502     -1555.7425     -399.64466     -452.42171    
     58100   300.01448     -1327.6269     -342.21098     -394.97387    
     58200   300.01016     -1120.4531     -291.93045     -344.69258    
     58300   300.04384     -1209.7091     -313.76237     -366.53042    
     58400   300.02788     -1086.2119     -285.01549     -337.78073    
     58500   300.02714     -1160.2744     -299.57606     -352.34117    
     58600   300.01349     -1185.7851     -307.01589     -359.7786     
     58700   300.04089     -972.15143     -256.80919     -309.57672    
     58800   300.07908     -883.39774     -235.5793      -288.35354    
     58900   300.03184     -937.14461     -250.53296     -303.2989     
     59000   300.07522     -620.72724     -171.78893     -224.5625     
     59100   300           -553.35955     -150.81006     -203.5704     
     59200   300.0384      -398.03538     -108.19474     -160.96183    
     59300   300.09827     -410.31246     -108.8191      -161.59672    
     59400   300           -621.72861     -159.97834     -212.73868    
     59500   300.03        -593.1926      -153.33041     -206.09602    
     59600   300.02506     -601.18713     -153.8397      -206.60444    
     59700   300.0701      -539.83414     -139.83977     -192.61243    
     59800   300.07157     -328.1704      -89.720807     -142.49373    
     59900   300           -365.02943     -97.314938     -150.07528    
SHAKE stats (type/ave/delta/count) on step 60000
Bond:   1   0.957399  1.03439e-12       60
Angle:  1   104.52    5.22107e-11       30
     60000   300.04643     -491.30514     -126.48177     -179.25027    
     60100   300.02011     -490.43682     -126.87859     -179.64247    
     60200   300.03761     -487.0866      -127.23327     -180.00023    
     60300   300.04991     -463.45807     -120.28257     -173.05169    
     60400   300.05739     -534.53751     -134.9744      -187.74483    
     60500   300.06694     -676.79075     -171.20072     -223.97283    
     60600   300.03723     -794.23914     -200.09841     -252.86529    
     60700   299.92737     -793.17255     -200.07522     -252.82279    
     60800   299.90226     -654.05494     -163.87031     -216.61346    
     60900   300           -388.73794     -98.732181     -151.49252    
     61000   299.91209     -352.99141     -91.352726     -144.0976     
     61100   299.9688      -452.39254     -112.92201     -165.67687    
     61200   300.07588     -597.4132      -149.0199      -201.79358    
     61300   300.01867     -551.56095     -134.6867      -187.45032    
     61400   300.03996     -522.13444     -127.66727     -180.43463    
     61500   300.05046     -500.58297     -120.72931     -173.49853    
     61600   300           -612.09008     -142.71215     -195.47249    
     61700   300.05327     -505.39389     -114.18253     -166.95224    
     61800   300.04841     -474.4838      -107.21619     -159.98504    
     61900   300.09549     -686.14759     -157.82097     -210.59811    
     62000   300.0295      -701.77979     -157.97833     -210.74386    
     62100   300           -682.95369     -151.01686     -203.7772     
     62200   300.07637     -539.89433     -115.13105     -167.90482    
     62300   300.08913     -462.97892     -93.676727     -146.45274    
     62400   300.06826     -404.69273     -79.419184     -132.19153    
     62500   300.04365     -432.5815      -86.807953     -139.57597    
     62600   300.08383     -437.44263     -86.923426     -139.69851    
     62700   300.03188     -322.68158     -58.096697     -110.86264    
     62800   300.01479     -26.533516      14.060358     -38.702581    
     62900   299.98182     -51.365236      6.8582518     -45.898888    
     63000   299.98897     -4.9009296      21.400264     -31.358135    
     63100   299.9891       10.125084      28.780963     -23.977459    
     63200   300            65.859965      43.4787       -9.2816375    
     63300   299.98131      0.57435696     29.37202      -23.385032    
     63400   299.93575     -145.26429     -6.3558603     -59.104898    
     63500   299.93823     -115.98867      1.2337124     -51.515762    
     63600   299.98103     -178.13149     -12.85165      -65.608652    
     63700   299.95002     -116.21319      1.8792888     -50.872259    
     63800   299.91335     -61.913184      16.585072     -36.160027    
     63900   299.94158     -304.64569     -40.911819     -93.661883    
     64000   299.94758     -429.13522     -69.660524     -122.41164    
     64100   299.97435     -293.01341     -33.541534     -86.29736     
     64200   300.08538     -368.95118     -47.999793     -100.77515    
     64300   300.07404     -203.99363     -4.8271991     -57.600558    
     64400   300.01373     -246.78        -12.254655     -65.017407    
     64500   300           -249.42489     -12.518193     -65.278531    
     64600   300           -114.5336       23.185834     -29.574504    
     64700   300           -75.944012      37.224475     -15.535863    
     64800   300.07422     -23.867207      51.343801     -1.4295891    
     64900   300.04417      89.010335      79.900729      27.132622    
     65000   300            224.53338      115.74404      62.983706    
     65100   300.01695      234.25685      122.81654      70.05322     
     65200   300            351.12752      151.50825      98.747908    
     65300   300.04372      6.1623863      71.893097      19.125071    
     65400   300.01838     -125.26928      42.739467     -10.024103    
     65500   300.01166     -426.74866     -29.702339     -82.464727    
     65600   300           -343.1877      -8.3643401     -61.124678    
     65700   300.04061     -516.9048      -44.793148     -97.560628    
     65800   300           -823.09284     -117.3023      -170.06264    
     65900   300.08359     -772.68344     -103.02435     -155.79939    
     66000   300.06437     -713.56313     -88.670696     -141.44235    
     66100   300.06717     -443.5779      -23.737786     -76.509937    
     66200   299.93631     -471.24044     -30.962072     -83.71121     
     66300   299.99063     -499.33833     -38.15073      -90.90942     
     66400   299.94881     -346.12233     -2.0693678     -54.820703    
     66500   299.91595     -65.51761       62.937567      10.192011    
     66600   299.98209     -125.23914      48.590959     -4.1662293    
     66700   299.94976     -241.8262       19.772096     -32.979405    
     66800   299.99575      61.381982      92.017318      39.257728    
     66900   299.91452     -29.41873       70.438537      17.693233    
     67000   299.96631      54.726357      92.161664      39.40725     
     67100   299.98655     -93.374275      56.1092        3.3512279    
     67200   300.08175      185.71699      121.03459      68.259879    
     67300   300.01403      266.24059      142.5398       89.776993    
     67400   300.0881       292.98026      149.45762      96.681792    
     67500   300.07256      249.3304       141.82232      89.04922     
     67600   300.09446      341.3591       162.996        110.21905    
     67700   300.0935       270.09634      147.95879      95.18201     
     67800   300.09332      196.16757      132.96812      80.191371    
     67900   300.09452      253.23154      146.85291      94.075952    
     68000   300.04723      393.41523      182.44665      129.67801    
     68100   300            330.21238      167.56793      114.80759    
     68200   300            353.93371      174.3283       121.56796    
     68300   300.09229      371.39998      181.19281      128.41624    
     68400   300.05005      427.32908      195.30247      142.53333    
     68500   300.02061      196.79942      137.31517      84.55121     
     68600   300.03085      177.46113      129.95232      77.186555    
     68700   300.0551       276.26408      151.41869      98.648661    
     68800   300.03635      191.88079      129.60479      76.838055    
     68900   300.02095      211.83299      136.67734      83.913314    
     69000   300.05522      191.48853      129.35235      76.5823      
     69100   300.02804      107.54776      107.66737      54.9021      
     69200   300.02286      59.55363       93.15875       40.394391    
     69300   300           -22.462513      71.321391      18.561054    
     69400   300.06563      200.32506      121.65963      68.887752    
     69500   300.06457      410.50859      172.0571       119.28541    
     69600   300.06531      642.37833      229.74713      176.97531    
     69700   300.03734      590.36815      215.29535      162.52844    
     69800   299.97667      386.78749      164.77674      112.0205     
     69900   300            569.76567      208.15642      155.39608    
SHAKE stats (type/ave/delta/count) on step 70000
Bond:   1   0.9574    1.19704e-12       60
Angle:  1   104.52    7.15801e-11       30
     70000   299.93896      500.87685      193.79907      141.04947    
     70100   299.91187      449.105        179.55022      126.80538    
     70200   299.91474      424.75964      172.67745      119.9321     
     70300   299.94355      455.00597      180.30201      127.5516     
     70400   299.9451       428.45598      173.5544       120.80372    
     70500   299.94856      466.09937      181.24253      128.49124    
     70600   299.97267      475.54186      181.71281      128.95728    
     70700   299.97238      374.95805      153.35978      100.6043     
     70800   299.94863      288.16452      132.16608      79.414778    
     70900   299.95803      241.62478      118.15573      65.402774    
     71000   299.9703       132.03809      89.545587      36.790472    
     71100   299.97422      105.48816      82.438189      29.682385    
     71200   300.0789       11.485962      60.768766      7.9945526    
     71300   300.07628      65.061454      75.002202      22.22845     
     71400   300.07935      81.12072       81.910291      29.135997    
     71500   300.02755     -18.471279      59.829173      7.0639903    
     71600   300.07342     -24.671322      59.287783      6.5145338    
     71700   300            98.269225      94.662921      41.902583    
     71800   300.04299      116.15155      101.14212      48.374219    
     71900   300.08729     -13.53119       71.527035      18.751346    
     72000   300           -29.935557      70.713252      17.952914    
     72100   300.05047     -41.857679      69.874429      17.105215    
     72200   300.05308     -118.81905      54.513161      1.7434882    
     72300   300.09462      55.904381      96.924752      44.147773    
     72400   300            145.28889      117.72995      64.969616    
     72500   300.04238      320.17428      160.27126      107.50347    
     72600   300.06971      50.34902       94.648099      41.875501    
     72700   300            66.208498      101.28323      48.522888    
     72800   300            32.758716      93.579476      40.819138    
     72900   300.09097      485.97648      201.41226      148.63593    
     73000   300.06094      308.73781      157.7771       105.00604    
     73100   300.05585      312.14082      157.61037      104.84021    
     73200   300.07868      183.02912      128.65234      75.878167    
     73300   299.95425      364.04062      171.93908      119.18679    
     73400   299.96887      170.86986      121.56242      68.807561    
     73500   299.96117     -25.01745       71.326215      18.572706    
     73600   300           -37.341694      64.560574      11.800236    
     73700   300           -44.520309      57.853606      5.0932677    
     73800   300           -137.41296      29.46749      -23.292848    
     73900   300           -195.39815      8.3038639     -44.456474    
     74000   299.92597     -108.50978      23.191972     -29.555346    
     74100   300           -89.450779      23.616127     -29.14421     
     74200   299.94409     -236.3919      -19.355327     -72.105832    
     74300   300           -180.08658     -11.812996     -64.573334    
     74400   299.96008      59.161565      39.041338     -13.711979    
     74500   300            60.377591      32.169851     -20.590487    
     74600   299.9595       39.886057      18.061369     -34.691847    
     74700   300            33.479937      11.226896     -41.533442    
     74800   299.98012      14.255627     -2.8748773     -55.631719    
     74900   299.96458      20.378142     -9.7675684     -62.521676    
     75000   299.94569     -29.649271     -31.11483      -83.865616    
     75100   299.96082      237.25324      26.938989     -25.814459    
     75200   299.92877      151.30957     -1.5947796     -54.34259     
     75300   299.98539      25.030638     -37.350542     -90.108311    
     75400   299.90869      176.58062     -8.2276161     -60.971896    
     75500   300            209.08373     -7.9247736     -60.685111    
     75600   299.90897      156.54731     -29.327424     -82.071753    
     75700   299.94504      152.46528     -36.203043     -88.953715    
     75800   299.98349     -52.692606     -93.615027     -146.37246    
     75900   299.93427      427.61435      14.956724     -37.792054    
     76000   299.98009      421.96419      8.1536895     -44.603147    
     76100   299.91848      496.30938      22.914535     -29.831466    
     76200   299.96003      373.69571     -12.798116     -65.551424    
     76300   299.90559      506.58929      16.405488     -36.338247    
     76400   299.90258      741.39862      67.329185      14.58598     
     76500   299.96317      647.72386      38.845519     -13.908341    
     76600   300            510.4347       3.0860996     -49.674238    
     76700   299.93186      405.0838      -25.512612     -78.260967    
     76800   299.91599      510.35906     -3.557265      -56.302828    
     76900   299.94385      640.66117      25.601386     -27.149078    
     77000   299.92445      563.7049       4.1317821     -48.615268    
     77100   299.9579       884.56708      83.615406      30.862473    
     77200   300.04398      828.15311      69.105149      16.337076    
     77300   300.07292      825.60912      68.996133      16.222971    
     77400   300            763.67093      54.34042       1.5800824    
     77500   300.08874      457.23144     -18.045583     -70.821528    
     77600   300.00978      296.06248     -54.31815      -107.08021    
     77700   300.06267      225.68728     -68.943921     -121.71528    
     77800   300            461.92057     -11.449507     -64.209845    
     77900   300.0425       778.70961      67.674165      14.906353    
     78000   300.06558      679.71385      45.753825     -7.0180454    
     78100   300.07173      392.56642     -19.561274     -72.334227    
     78200   300.06327      590.74576      30.560632     -22.210833    
     78300   300            688.86843      59.120189      6.3598515    
     78400   300.04251      590.95407      37.239264     -15.52855     
     78500   300.02734      692.69978      65.918735      13.153589    
     78600   300.01109      560.25229      36.820907     -15.941382    
     78700   300.08902      363.99951     -6.6496501     -59.425643    
     78800   300.08075      380.78427      0.36085911    -52.41368     
     78900   300.03596      43.716491     -79.217044     -131.98371    
     79000   300.04184      111.67317     -57.769141     -110.53684    
     79100   300.08275      64.679405     -65.189341     -117.96423    
     79200   300.03957     -12.395505     -79.897436     -132.66473    
     79300   300.05971     -89.092726     -94.540371     -147.31121    
     79400   300.06126     -44.364375     -80.291989     -133.0631     
     79500   300.0921      -2.1548277     -66.102187     -118.87872    
     79600   300.01304      71.843646     -44.719366     -97.481997    
     79700   300            207.85928     -8.8579989     -61.618337    
     79800   300.09359      200.12355     -9.0469467     -61.823744    
     79900   300.03186      291.08338      12.323962     -40.44198     
SHAKE stats (type/ave/delta/count) on step 80000
Bond:   1   0.9574    8.88956e-13       60
Angle:  1   104.52    6.48299e-11       30
     80000   300.04465      182.14175     -9.6298848     -62.398074    
     80100   300.09194     -9.7707016     -53.216173     -105.99268    
     80200   300.07815     -17.413883     -53.518911     -106.29299    
     80300   300            146.55077     -10.586141     -63.346479    
     80400   300            57.123967     -25.358092     -78.11843     
     80500   300           -142.30949     -68.97157      -121.73191    
     80600   300            59.435128     -18.730778     -71.491116    
     80700   300.0984       107.97763     -4.466253      -57.243896    
     80800   300.01686     -196.29378     -76.866494     -129.6298     
     80900   300           -240.32297     -84.372842     -137.13318    
     81000   300.03353     -48.193381     -34.077428     -86.843663    
     81100   300.08035     -132.73424     -48.619806     -101.39428    
     81200   300.01926     -142.81531     -48.672746     -101.43647    
     81300   299.98069      50.401142      1.9228079     -50.834134    
     81400   299.96472      40.994441      2.10695       -50.647184    
     81500   299.9576      -170.03191     -48.153512     -100.90639    
     81600   299.92353     -441.64043     -112.70116     -165.44805    
     81700   299.96356     -415.03619     -104.94235     -157.69628    
     81800   299.90522     -256.75204     -68.120732     -120.8644     
     81900   300           -222.21967     -60.044305     -112.80464    
     82000   299.95184     -205.80456     -59.251598     -112.00347    
     82100   299.90542     -65.393884     -29.554003     -82.297706    
     82200   300            265.94947      50.68755      -2.0727876    
     82300   299.96195      246.44747      44.25991      -8.4937361    
     82400   299.92704      432.35146      88.202867      35.455361    
     82500   300            224.01844      38.320995     -14.439343    
     82600   299.97663      158.48253      24.36575      -28.390477    
     82700   299.91677      215.06504      39.114006     -13.631694    
     82800   299.95738      24.479985     -4.0641931     -56.817036    
     82900   300.09561      252.16438      53.620123      0.84297032   
     83000   300.04537      172.98833      38.884467     -13.88385     
     83100   300.03459      255.15151      67.234265      14.467845    
     83200   300.0854       147.22721      44.925817     -7.8495395    
     83300   300            344.70783      94.630838      41.8705      
     83400   300            347.92884      100.96086      48.200524    
     83500   300.09426      351.10223      107.33153      54.554614    
     83600   300            379.41553      120.92894      68.168606    
     83700   300.03534      226.9961       91.321438      38.554884    
     83800   300.06647      333.9007       119.57147      66.799445    
     83900   300.08066      229.84542      97.437647      44.663124    
     84000   300            69.215044      61.064106      8.303768     
     84100   300.08069      171.2503       89.840456      37.065927    
     84200   300.03635      128.0323       82.604265      29.837534    
     84300   300            139.92647      90.04546       37.285122    
     84400   299.96762      148.21399      90.523494      37.76885     
     84500   299.96106      90.438417      76.717841      23.964351    
     84600   299.9258       90.780518      77.365502      24.618214    
     84700   300            274.25049      121.35402      68.593686    
     84800   299.96273      247.32648      114.76317      62.00939     
     84900   299.9301       215.24472      108.16853      55.420479    
     85000   300            273.61021      123.19343      70.433095    
     85100   299.9285       270.42766      123.64125      70.893486    
     85200   300            205.76984      109.66305      56.902717    
     85300   299.90001      262.67413      124.46348      71.720727    
     85400   299.98013      187.24626      110.2736       57.516756    
     85500   299.9315       500.6108       189.79349      137.0452     
     85600   300.00487      394.40234      168.13765      115.37646    
     85700   300.04162      355.65611      160.78912      108.02146    
     85800   300.09677      350.52542      160.6007       107.82334    
     85900   300.02013      265.35741      145.85848      93.094601    
     86000   300.0655       497.82271      203.13125      150.35939    
     86100   300.03872      515.22875      209.72181      156.95467    
     86200   300.07606      473.51282      201.81278      149.03907    
     86300   300            562.53678      229.97759      177.21725    
     86400   300.04131      451.70616      207.57636      154.80876    
     86500   300.09316      307.50966      177.90364      125.12691    
     86600   300            230.89136      162.65547      109.89513    
     86700   300.09015      340.28925      190.84719      138.071      
     86800   300            447.58091      219.21301      166.45267    
     86900   300.01753      539.38011      240.4878       187.72438    
     87000   300.04         563.80627      247.37786      194.61049    
     87100   300            614.16248      261.44038      208.68004    
     87200   300.05312      587.75476      253.86419      201.09451    
     87300   300.05485      497.87919      231.90658      179.13659    
     87400   300.0074       434.49861      217.27917      164.51753    
     87500   300            207.82144      159.40883      106.64849    
     87600   300.07832      332.45449      188.14457      135.37046    
     87700   300.00717      274.572        173.54558      120.78398    
     87800   300.04504      196.59411      151.76312      98.994866    
     87900   300.0302       208.78945      151.57754      98.811891    
     88000   300            122.91736      129.7166       76.956266    
     88100   300            276.85801      165.61844      112.8581     
     88200   300.06802      69.154943      114.96845      62.196148    
     88300   300.04134      170.26481      136.54962      83.78201     
     88400   300.0455       298.61983      165.34682      112.57848    
     88500   300.06805      249.43943      150.80097      98.028665    
     88600   300.05392      160.05467      129.07635      76.306534    
     88700   299.94027      108.25126      114.67866      61.928824    
     88800   300           -78.300017      64.339651      11.579313    
     88900   299.96029     -196.36706      35.616456     -17.136898    
     89000   299.96931      28.949723      86.267604      33.512663    
     89100   299.90891     -13.955165      72.046269      19.301952    
     89200   299.97023     -118.22579      43.416314     -9.3387886    
     89300   299.94356     -219.30528      14.789651     -37.960761    
     89400   299.94278     -214.86631      15.014914     -37.735361    
     89500   300           -164.54474      22.400683     -30.359655    
     89600   299.97246     -401.82711     -35.267916     -88.02341     
     89700   300.06856     -418.39188     -42.535384     -95.307779    
     89800   300.09999     -493.40096     -64.390966     -117.16889    
     89900   300           -743.53198     -129.71983     -182.48017    
SHAKE stats (type/ave/delta/count) on step 90000
Bond:   1   0.9574    8.40217e-13       60
Angle:  1   104.52    6.03677e-11       30
     90000   300           -705.49767     -122.97632     -175.73666    
     90100   300           -645.09377     -109.0592      -161.81954    
     90200   300.03842     -531.27027     -80.791538     -133.55863    
     90300   300.0851      -862.02304     -160.89176     -213.66707    
     90400   300.05143     -768.86791     -140.07319     -192.84258    
     90500   300.05581     -890.66971     -169.90666     -222.67681    
     90600   300.05875     -856.5921      -163.69705     -216.46772    
     90700   300.06442     -619.74121     -107.08238     -159.85405    
     90800   300.05444     -1046.9055     -209.1598      -261.92972    
     90900   300.05077     -1014.5063     -202.86055     -255.62981    
     91000   300.04395     -812.05549     -153.14736     -205.91543    
     91100   300.0324      -829.54186     -161.03635     -213.80239    
     91200   300.08648     -967.96755     -197.58429     -250.35984    
     91300   300.06777     -814.59174     -161.83773     -214.60999    
     91400   300.03741     -896.66922     -183.67629     -236.44321    
     91500   299.91841     -920.67338     -190.87583     -243.62182    
     91600   299.93013     -1023.3448     -219.60182     -272.34987    
     91700   300           -1059.1873     -233.77789     -286.53823    
     91800   299.98219     -998.67503     -226.28134     -279.03854    
     91900   299.96505     -821.52548     -189.90829     -242.66248    
     92000   300           -830.39935     -196.79018     -249.55052    
     92100   300           -574.89249     -138.67954     -191.43988    
     92200   300           -284.8451      -73.331318     -126.09166    
     92300   300           -140.53973     -44.069433     -96.829771    
     92400   299.93605     -284.68944     -86.880064     -139.62915    
     92500   300           -431.97888     -129.5912      -182.35154    
     92600   299.96408     -466.62803     -143.41651     -196.17053    
     92700   299.92285     -443.69677     -142.75436     -195.50113    
     92800   300           -303.97958     -113.1965      -165.95683    
     92900   299.95546     -366.46638     -134.10989     -186.86239    
     93000   299.91296     -338.1651      -133.3339      -186.07893    
     93100   300           -190.47272     -103.67122     -156.43156    
     93200   300           -220.87383     -117.23253     -169.99287    
     93300   300           -245.76531     -130.79409     -183.55443    
     93400   299.90299      85.766412     -57.773674     -110.51695    
     93500   300           -81.933597     -100.24757     -153.0079     
     93600   299.96132     -442.75657     -193.36744     -246.12098    
     93700   299.92178     -508.35027     -214.34272     -267.0893     
     93800   300           -545.13528     -228.12621     -280.88654    
     93900   299.94366     -472.40726     -213.161       -265.91143    
     94000   299.95126     -455.75384     -212.7008      -265.45256    
     94100   299.98447     -353.56841     -190.68324     -243.44085    
     94200   299.96204     -264.2872      -168.84812     -221.60178    
     94300   299.98983     -164.60105     -147.17742     -199.93597    
     94400   300.08242     -132.14263     -140.10654     -192.88138    
     94500   300           -285.52667     -176.47517     -229.23551    
     94600   300.0797      -197.26907     -155.24942     -208.02378    
     94700   300.06899     -375.37636     -199.10537     -251.87784    
     94800   300.07576     -649.46117     -264.68631     -317.45997    
     94900   300           -625.43093     -258.18792     -310.94826    
     95000   300.03271     -361.45198     -193.86835     -246.63444    
     95100   300.0334      -548.1004      -237.73932     -290.50553    
     95200   300.09684     -724.1996      -281.60793     -334.3853     
     95300   300.08351     -820.0368      -303.79096     -356.56598    
     95400   300.02277     -675.17896     -268.15478     -320.91912    
     95500   300.04398     -572.18469     -239.69524     -292.46331    
     95600   300.04567     -450.63371     -211.22971     -263.99808    
     95700   300.06466     -509.41527     -225.9522      -278.72391    
     95800   300.03483     -719.4552      -276.64539     -329.41185    
     95900   300.06875     -599.24708     -247.88846     -300.66089    
     96000   299.98425     -730.8818      -276.80027     -329.55784    
     96100   300.03189     -637.46995     -255.15373     -307.91968    
     96200   300.00832     -693.32778     -269.64707     -322.40888    
     96300   299.98826     -664.59535     -262.45397     -315.21224    
     96400   299.93652     -535.48098     -233.58721     -286.33639    
     96500   300.03107     -559.81299     -240.82698     -293.59279    
     96600   300.06173     -537.09485     -233.70188     -286.47308    
     96700   300.08924     -519.348       -226.63529     -279.41132    
     96800   300.07739     -531.32113     -226.92339     -279.69734    
     96900   300.0217      -512.43367     -220.08963     -272.85379    
     97000   300.02478     -620.76124     -242.19149     -294.95619    
     97100   300.05225     -484.47882     -206.53439     -259.30392    
     97200   300.05471     -529.89898     -214.22303     -266.99299    
     97300   300.06225     -602.07484     -229.18885     -281.96014    
     97400   300.05715     -333.11695     -164.74359     -217.51398    
     97500   300           -373.53455     -172.41823     -225.17857    
     97600   300.02381     -204.34106     -129.53415     -182.29868    
     97700   300.02233     -246.55749     -137.16363     -189.9279     
     97800   300.09255     -147.24107     -108.6748      -161.45141    
     97900   300.09604      77.241791     -51.333105     -104.11033    
     98000   300.09558      183.00988     -22.883258     -75.660405    
     98100   300.0805       75.911761     -44.974421     -97.748916    
     98200   300.0928       309.49453      12.271992     -40.504666    
     98300   300.03945      378.16825      33.295418     -19.471858    
     98400   300.08218      298.51293      18.168203     -34.606588    
     98500   300            101.45805     -25.885626     -78.645964    
     98600   300.04849      79.234286     -26.666938     -79.435804    
     98700   300            31.854851     -34.761458     -87.521795    
     98800   300           -136.18366     -71.737162     -124.4975     
     98900   300.04779     -269.87801     -101.47867     -154.24741    
     99000   300.09607     -441.50825     -138.37512     -191.15235    
     99100   300           -462.33809     -139.24741     -192.00775    
     99200   300.03849     -304.25698     -96.68696      -149.45407    
     99300   300.09008     -300.32906     -90.032592     -142.80877    
     99400   300.01426     -221.35884     -68.798902     -121.56175    
     99500   300.02137     -381.52175     -105.15294     -157.91704    
     99600   300.09498     -417.74807     -112.46741     -165.24445    
     99700   299.9588      -390.32703     -105.16008     -157.91317    
     99800   299.94566     -354.24141     -97.577251     -150.32803    
     99900   299.96477     -380.65659     -104.24681     -157.00096    
SHAKE stats (type/ave/delta/count) on step 100000
Bond:   1   0.9574    9.97646e-13       60
Angle:  1   104.52    4.46931e-11       30
    100000   299.90945     -426.85829     -117.97409     -170.7185     
    100100   299.94546     -293.90963     -88.183041     -140.93379    
    100200   299.93424     -370.73824     -108.76203     -161.5108     
    100300   299.93065     -382.64619     -114.80227     -167.55041    
    100400   299.92707     -290.76805     -99.122161     -151.86967    
    100500   299.92941     -342.10153     -112.27999     -165.02791    
    100600   299.93344     -296.31896     -103.88576     -156.63439    
    100700   299.9446      -215.44419     -88.373988     -141.12458    
    100800   299.95176     -291.67977     -109.11124     -161.86309    
    100900   299.969       -44.084918     -50.698019     -103.45291    
    101000   300           -44.299992     -50.245236     -103.00557    
    101100   299.90898     -60.583793     -50.003967     -102.7483     
    101200   299.98183     -15.875906     -35.4401       -88.197243    
    101300   300.01649     -25.801036     -35.514135     -88.277373    
    101400   300.06525      80.493837     -6.8086095     -59.580423    
    101500   300.02123      84.15595       0.24275959    -52.521311    
    101600   300.03296      191.34996      28.94392      -23.822215    
    101700   300.02201      115.63961      14.34028      -38.423929    
    101800   299.90439      73.066579      7.1229568     -45.620566    
    101900   299.94354     -90.012743     -28.782831     -81.533239    
    102000   299.97778      26.200621      0.4113356     -52.345094    
    102100   299.91602      45.921009      8.0687897     -44.676778    
    102200   299.90808     -20.056907     -5.8396597     -58.583833    
    102300   299.90615      30.016136      1.9306341     -50.813199    
    102400   299.96259      1.0583959     -4.6798839     -57.433642    
    102500   299.97215      143.44482      31.94717      -20.80827     
    102600   300            289.54571      68.502749      15.742411    
    102700   299.90278      217.8784       54.434148      1.6909083    
    102800   299.95075      340.92218      83.636542      30.884865    
    102900   299.91387      549.13895      134.38576      81.640569    
    103000   299.96266      422.92109      105.5699       52.816125    
    103100   300.02552      264.85532      69.406405      16.641579    
    103200   300.08262      164.32449      47.439247     -5.3356213    
    103300   300.02756      6.473752       10.92752      -41.837664    
    103400   300.03031     -103.49622     -11.247991     -64.013659    
    103500   300           -287.90156     -55.159949     -107.92029    
    103600   300           -140.26088     -19.660525     -72.420863    
    103700   300           -140.8588      -20.209428     -72.969766    
    103800   300.0986      -15.134303      8.2394312     -44.538247    
    103900   300.01561      60.496119      22.291118     -30.471966    
    104000   300.08009      216.90951      58.115082      5.3406587    
    104100   300.07601      281.09773      72.322795      19.549089    
    104200   300.02666      409.03678      101.10053      48.335505    
    104300   299.9123       550.59362      130.06094      77.31603     
    104400   299.96802      295.87025      65.353213      12.598499    
    104500   299.96408      260.55892      51.216653     -1.5373669    
    104600   299.97877      182.58782      29.91869      -22.837915    
    104700   299.90096     -28.854408     -27.493494     -80.236413    
[...]
   1974800   300.07689      3785.8972      196.72169      143.94783    
   1974900   300            4081.3524      210.60125      157.84091    
   1975000   300            3073.2413      130.38532      77.624978    
   1975100   300            2892.7314      114.86256      62.102224    
   1975200   300            2481.6031      84.855288      32.09495     
   1975300   300            2175.3806      62.000245      9.2399075    
   1975400   300            2059.421       53.492722      0.73238461   
   1975500   300            1154.6556     -20.099035     -72.859372    
   1975600   300            1751.4547      21.890105     -30.870233    
   1975700   300            1253.8926     -15.40834      -68.168678    
   1975800   300            2475.2734      77.434703      24.674366    
   1975900   300.05305      2536.4704      83.710637      30.940969    
   1976000   300.08269      3066.5225      126.17013      73.395251    
   1976100   300            3921.3486      190.60706      137.84672    
   1976200   300.0493       3692.1934      175.92273      123.15372    
   1976300   299.99289      1903.4494      38.770507     -13.988579    
   1976400   299.99119      1480.6281      10.115191     -42.643598    
   1976500   299.97555      2044.1106      53.598849      0.84281137   
   1976600   299.93583      3030.2839      133.11393      80.364878    
   1976700   300            3437.3315      162.05166      109.29132    
   1976800   300.05727      4313.9414      233.97077      181.20036    
   1976900   300.02122      3917.5159      204.74422      151.98015    
   1977000   300.03793      3866.5649      204.20752      151.44051    
   1977100   300.08124      3495.7915      174.63143      121.85681    
   1977200   300            3283.5         159.45961      106.69927    
   1977300   300.04603      3678.6406      194.78775      142.01932    
   1977400   300.07817      2953.836       143.48704      90.712952    
   1977500   300            3275.4119      171.62713      118.86679    
   1977600   300.0437       3443.945       185.31191      132.54389    
   1977700   300.07303      3557.2294      199.03277      146.25959    
   1977800   300.02838      3035.9489      162.33175      109.56642    
   1977900   300.08478      3809.14        219.65799      166.88274    
   1978000   299.98438      3447.249       190.66725      137.90966    
   1978100   299.91144      3057.5382      161.89433      109.14957    
   1978200   300            3411.2212      183.94772      131.18738    
   1978300   299.953        3404.0083      177.4479       124.69583    
   1978400   299.93296      3804.8839      200.06293      147.31439    
   1978500   299.91503      3405.6531      158.03124      105.28584    
   1978600   299.9094       2631.2621      87.409291      34.664887    
   1978700   299.9059       2332.3545      52.938621      0.19483164   
   1978800   299.9195       1679.7538     -3.213765      -55.959945    
   1978900   299.91387      2663.9723      63.21546       10.470269    
   1979000   299.92321      2694.3316      57.434012      4.6871796    
   1979100   299.93843      3047.6039      73.09239       20.34288     
   1979200   299.94672      3071.5856      66.892162      14.141194    
   1979300   299.91608      3534.2057      96.548569      43.80299     
   1979400   299.98081      3982.973       125.92206      73.165102    
   1979500   299.9415       2810.4072      32.265388     -20.484661    
   1979600   300.0815       2578.5142      10.554651     -42.220019    
   1979700   300.03228      1840.7534     -47.60911      -100.37512    
   1979800   300.05033      3104.9779      52.692181     -0.077007871  
   1979900   300.06525      4381.7508      152.67125      99.899436    
SHAKE stats (type/ave/delta/count) on step 1980000
Bond:   1   0.957401  6.2531e-11        60
Angle:  1   104.52    3.43672e-09       30
   1980000   300.0702       3644.9336      100.90876      48.136072    
   1980100   300.07549      3063.5713      63.544417      10.770803    
   1980200   300.08576      2650.7717      40.434389     -12.341032    
   1980300   300.08875      747.56343     -98.251951     -151.0279     
   1980400   300.092        1529.4505     -27.660482     -80.436999    
   1980500   300.07843      2013.4723      14.139108     -38.635023    
   1980600   300.0669       763.85502     -80.95353      -133.72563    
   1980700   300.09451      1737.5936     -2.5377022     -55.314661    
   1980800   300            689.43333     -75.436682     -128.19702    
   1980900   300.0583       690.47806     -75.786271     -128.55686    
   1981000   300.07561     -56.148314     -126.45614     -179.22978    
   1981100   300.04683     -811.16866     -184.26704     -237.03561    
   1981200   299.9826       200.45407     -104.72283     -157.4801     
   1981300   299.98208     -295.78148     -140.46713     -193.22431    
   1981400   300           -1081.16       -205.03632     -257.79666    
   1981500   299.91548     -585.30524     -168.37272     -221.1182     
   1981600   300           -2236.3193     -297.32203     -350.08236    
   1981700   300           -3124.9365     -368.49301     -421.25334    
   1981800   300           -2134.7578     -295.30192     -348.06226    
   1981900   299.91231     -2414.4632     -316.06688     -368.81179    
   1982000   300           -3832.7513     -423.56627     -476.32661    
   1982100   299.96672     -4194.7039     -451.80818     -504.56267    
   1982200   300           -4018.1801     -436.87705     -489.63739    
   1982300   300           -3966.8003     -436.44378     -489.20411    
   1982400   299.95514     -3292.695      -385.47566     -438.22811    
   1982500   299.97468     -2598.5835     -334.50128     -387.25716    
   1982600   300           -1558.3689     -254.73848     -307.49882    
   1982700   299.9228      -1898.8961     -283.33231     -336.07907    
   1982800   299.92152     -2670.4316     -348.0949      -400.84143    
   1982900   300.0317      -2987.7511     -377.02863     -429.79454    
   1983000   300.02641     -3028.2818     -377.40532     -430.1703     
   1983100   300.02322     -2588.8689     -341.74639     -394.51081    
   1983200   300.02701     -2988.8932     -371.06826     -423.83335    
   1983300   300.03343     -2238.1842     -306.60659     -359.37281    
   1983400   300.02535     -2241.992      -307.13511     -359.8999     
   1983500   300           -2405.9157     -314.78411     -367.54445    
   1983600   300.095       -3559.3138     -401.93792     -454.71496    
   1983700   300.03104     -4015.5984     -431.38962     -484.15541    
   1983800   300.08733     -3781.9677     -410.13326     -462.90896    
   1983900   300.0379      -3763.5417     -403.24752     -456.01453    
   1984000   300.05409     -2704.8237     -316.87027     -369.64012    
   1984100   300           -3172.5283     -345.95539     -398.71573    
   1984200   300.02559     -2971.8541     -324.40266     -377.16749    
   1984300   299.92547     -2190.9766     -259.40512     -312.15235    
   1984400   299.97557     -2669.8653     -295.23664     -347.99268    
   1984500   299.93023     -1147.1744     -171.9689      -224.71696    
   1984600   300           -683.75704     -135.16913     -187.92946    
   1984700   299.96441      629.65367     -33.456084     -86.210163    
   1984800   299.93369      1456.0029      32.102168     -20.646508    
   1984900   299.937       -71.990256     -82.848551     -135.59781    
   1985000   299.93318     -812.04914     -140.01078     -192.75936    
   1985100   299.94358     -2093.4077     -240.45958     -293.21       
   1985200   299.97887     -2382.1655     -261.70721     -314.46384    
   1985300   299.92649     -1788.4267     -218.13544     -270.88285    
   1985400   299.97091     -1716.1144     -210.86066     -263.61588    
   1985500   300.02887     -2110.3751     -239.85349     -292.61891    
   1985600   300           -1163.4491     -160.60395     -213.36428    
   1985700   300.03626     -664.49468     -124.60722     -177.37394    
   1985800   300.04893     -841.44349     -139.15121     -191.92015    
   1985900   300.03268     -847.0983      -139.24257     -192.00866    
   1986000   300.06517     -71.97678      -74.287107     -127.05891    
   1986100   300.04739     -1155.1719     -160.91544     -213.68411    
   1986200   299.93779     -154.83994     -81.411087     -134.16048    
   1986300   299.9952      -357.3083      -95.828685     -148.58818    
   1986400   300.04657     -10.71892      -67.087223     -119.85575    
   1986500   300.06233      399.72612     -38.290277     -91.061577    
   1986600   300.01826      182.39286     -52.817268     -105.58082    
   1986700   300           -23.189493     -67.436858     -120.1972     
   1986800   300.09245     -73.594481     -67.621794     -120.39839    
   1986900   300.06148     -673.40538     -111.07448     -163.84563    
   1987000   300           -1236.0576     -147.22822     -199.98855    
   1987100   300.03184     -952.13664     -125.57531     -178.34125    
   1987200   300.00891     -717.81396     -103.9397      -156.7016     
   1987300   299.9117      -715.30575     -96.646601     -149.39141    
   1987400   300           -857.12136     -103.65662     -156.41696    
   1987500   300           -477.97278     -74.397069     -127.15741    
   1987600   300           -851.66709     -102.90381     -155.66414    
   1987700   299.90985      74.590459     -37.645126     -90.389609    
   1987800   300           -120.54787     -51.800968     -104.56131    
   1987900   299.97548     -337.48658     -65.842291     -118.59832    
   1988000   299.93906     -158.42283     -51.035735     -103.78536    
   1988100   299.97913      665.23391      14.329541     -38.427126    
   1988200   299.96027      103.85648     -28.638292     -81.391641    
   1988300   300            80.514387     -28.278517     -81.038855    
   1988400   299.97137      902.89884      36.899788     -15.855515    
   1988500   299.92951     -364.56661     -56.661737     -109.40968    
   1988600   299.90369      560.25961      15.775698     -36.967702    
   1988700   299.94135      670.73667      23.340659     -29.409366    
   1988800   299.93593      1222.8296      66.851356      14.102286    
   1988900   300.02902      602.15626      16.345749     -36.419693    
   1989000   300.01275     -689.7329      -84.699199     -137.46178    
   1989100   300.01997      304.14541     -5.471269      -58.235118    
   1989200   300.02309      1216.8946      66.348578      13.584178    
   1989300   300            1094.8803      58.631039      5.8707015    
   1989400   300.03924      1329.0841      79.603297      26.836057    
   1989500   300.05047      552.18422      21.035468     -31.733745    
   1989600   300.05748      1887.3259      128.34759      75.577146    
   1989700   300            2675.5044      192.3757       139.61536    
   1989800   300.04035      2067.941       148.32521      95.557778    
   1989900   300            2268.0152      169.34633      116.586      
SHAKE stats (type/ave/delta/count) on step 1990000
Bond:   1   0.9574    1.10001e-12       60
Angle:  1   104.52    1.19314e-10       30
   1990000   300            2887.826       219.42259      166.66225    
   1990100   300.0556       2881.8014      219.07346      166.30334    
   1990200   300.09187      2362.0607      175.63673      122.86024    
   1990300   300.02237      2278.7433      168.36175      115.59747    
   1990400   299.91216      2110.7368      153.90311      101.15822    
   1990500   299.91466      2127.8442      153.97126      101.22593    
   1990600   300.07806      2991.9047      218.93953      166.16546    
   1990700   299.97792      2519.8688      182.93474      130.17829    
   1990800   300.07198      1665.129       117.9706       65.1976      
   1990900   300.02029      1590.6737      110.40451      57.640606    
   1991000   300.02921      1199.6902      81.072009      28.306534    
   1991100   300            1254.8725      87.670188      34.90985     
   1991200   300.04754      2289.3503      173.50778      120.73908    
   1991300   300            2600.7555      201.3786       148.61827    
   1991400   300            2459.7244      192.91375      140.15341    
   1991500   300            2337.9822      184.29849      131.53816    
   1991600   300            1375.4913      110.70518      57.944847    
   1991700   300            707.91234      65.930547      13.170209    
   1991800   300           -217.31803     -0.58205707    -53.342395    
   1991900   300           -1244.0279     -81.418964     -134.1793     
   1992000   300           -2744.749      -197.88854     -250.64888    
   1992100   300.08996     -1903.4775     -126.32677     -179.10293    
   1992200   300.04891     -2064.3052     -133.88443     -186.65337    
   1992300   299.961       -2269.4665     -148.40971     -201.16319    
   1992400   299.9361      -3400.0117     -234.87998     -287.62908    
   1992500   299.97067     -3368.8734     -234.48396     -287.23914    
   1992600   299.95459     -2134.2287     -140.03723     -192.78958    
   1992700   300           -620.42969     -23.58827      -76.348608    
   1992800   300           -1517.155      -101.74496     -154.50529    
   1992900   300           -2448.7468     -179.7201      -232.48043    
   1993000   300           -2001.4902     -149.31747     -202.07781    
   1993100   300           -1244.8394     -97.164933     -149.92527    
   1993200   300           -117.93885     -16.177789     -68.938127    
   1993300   300           -9.9550387     -14.936915     -67.697253    
   1993400   299.91306     -382.02398     -50.190509     -102.93556    
   1993500   300            46.075298     -20.661821     -73.422159    
   1993600   300            156.09722     -12.935812     -65.69615     
   1993700   299.93059     -251.48215     -48.696472     -101.4446     
   1993800   299.95908      157.51768     -19.606185     -72.359327    
   1993900   299.93052     -64.172693     -41.184745     -93.932864    
   1994000   300.06167     -1047.3731     -120.61083     -173.38201    
   1994100   300.0665      -755.94586     -99.029083     -151.80112    
   1994200   300.07325     -506.08317     -77.461571     -130.23479    
   1994300   300.08425     -442.77443     -70.298594     -123.07375    
   1994400   300.05669     -909.23962     -106.4586      -159.2289     
   1994500   299.94435     -633.42327     -84.805157     -137.55571    
   1994600   299.95453     -1065.1945     -120.77639     -173.52873    
   1994700   300           -1426.4483     -149.55252     -202.31285    
   1994800   299.90936     -536.2477      -77.280174     -130.02457    
   1994900   299.97417     -673.56503     -84.438107     -137.1939     
   1995000   299.93        -1152.3037     -120.45269     -173.20072    
   1995100   300           -961.24108     -105.86938     -158.62972    
   1995200   299.94186     -2343.4577     -214.01955     -266.76966    
   1995300   299.96981     -3303.4395     -286.11473     -338.86976    
   1995400   299.97735     -3042.9336     -264.22604     -316.98239    
   1995500   300           -2777.227      -249.43405     -302.19438    
   1995600   299.97338     -3417.3822     -299.60366     -352.35932    
   1995700   299.97964     -1985.4758     -190.88204     -243.6388     
   1995800   299.9673      -1606.8609     -161.6112      -214.36579    
   1995900   299.92846     -223.58071     -53.195932     -105.94369    
   1996000   299.95616     -61.713906     -38.745034     -91.497662    
   1996100   300.02147     -297.94871     -53.198271     -105.96239    
   1996200   300.04875     -288.18738     -53.327618     -106.09653    
   1996300   300           -1489.4909     -147.47457     -200.23491    
   1996400   300.06125     -1985.044      -191.21218     -243.98329    
   1996500   300.03215     -2711.1553     -249.51908     -302.28507    
   1996600   300.03252     -2071.6158     -199.62077     -252.38683    
   1996700   300.03584     -2717.2833     -250.7454      -303.51205    
   1996800   300.02809     -2975.305      -272.84969     -325.61497    
   1996900   299.93832     -2910.4054     -272.84929     -325.59878    
   1997000   299.98735     -2691.6344     -258.20731     -310.96542    
   1997100   299.96415     -3414.3198     -322.70203     -375.45607    
   1997200   300           -3782.9841     -351.04338     -403.80372    
   1997300   299.93397     -2757.0765     -271.1359      -323.88462    
   1997400   299.93379     -2247.0165     -234.43858     -287.18727    
   1997500   299.90525     -2111.1093     -226.65509     -279.39877    
   1997600   299.96317     -1613.7602     -189.90954     -242.6634     
   1997700   299.96975     -1579.3077     -189.28168     -242.0367     
   1997800   299.97733     -2296.5032     -253.88772     -306.64407    
   1997900   299.98944     -1048.3632     -159.87575     -212.63423    
   1998000   299.95693     -754.18815     -138.07474     -190.82751    
   1998100   299.9921      -308.65659     -101.93446     -154.69341    
   1998200   300            756.35322     -15.471856     -68.232194    
   1998300   300.09956      1354.3081      34.776924     -18.000924    
   1998400   300.08332      1756.7387      70.449746      17.674756    
   1998500   300.09213      1964.0692      91.585612      38.809071    
   1998600   300.08758      1647.9952      69.516806      16.741067    
   1998700   300.09221     -129.24186     -68.015261     -120.79182    
   1998800   300.01159      356.17844     -25.053836     -77.816212    
   1998900   300           -232.09003     -68.563091     -121.32343    
   1999000   300.0869      -313.46752     -68.687948     -121.46357    
   1999100   300.01196     -994.76816     -119.28452     -172.04696    
   1999200   300.07169     -1774.1961     -177.02245     -229.7954     
   1999300   300.01        -958.80514     -112.22923     -164.99133    
   1999400   299.9605      -1261.1991     -133.95178     -186.70517    
   1999500   299.98434     -1113.4319     -119.41245     -172.17004    
   1999600   299.94878     -888.50737     -97.558655     -150.30998    
   1999700   299.91448      151.69534     -10.661251     -63.406549    
   1999800   299.95768     -228.96042     -39.260486     -92.013382    
   1999900   299.99993      28.95436      -17.495777     -70.256103    
SHAKE stats (type/ave/delta/count) on step 2000000
Bond:   1   0.9574    8.00471e-13       60
Angle:  1   104.52    8.90736e-11       30
   2000000   300.032        337.33482      11.357726     -41.40824     
Loop time of 231.116 on 1 procs for 2000000 steps with 90 atoms

Performance: 7.477 ns/day, 3.210 hours/ns, 8653.658 timesteps/s, 778.829 katom-step/s
22.3% CPU use with 1 MPI tasks x 1 OpenMP threads

MPI task timing breakdown:
Section |  min time  |  avg time  |  max time  |%varavg| %total
---------------------------------------------------------------
Pair    | 141.26     | 141.26     | 141.26     |   0.0 | 61.12
Bond    | 0.36007    | 0.36007    | 0.36007    |   0.0 |  0.16
Neigh   | 0.17477    | 0.17477    | 0.17477    |   0.0 |  0.08
Comm    | 14.335     | 14.335     | 14.335     |   0.0 |  6.20
Output  | 13.588     | 13.588     | 13.588     |   0.0 |  5.88
Modify  | 59.258     | 59.258     | 59.258     |   0.0 | 25.64
Other   |            | 2.141      |            |       |  0.93

Nlocal:             90 ave          90 max          90 min
Histogram: 1 0 0 0 0 0 0 0 0 0
Nghost:           1625 ave        1625 max        1625 min
Histogram: 1 0 0 0 0 0 0 0 0 0
Neighs:           8960 ave        8960 max        8960 min
Histogram: 1 0 0 0 0 0 0 0 0 0

Total # of neighbors = 8960
Ave neighs/atom = 99.555556
Ave special neighs/atom = 2
Neighbor list builds = 670
Dangerous builds = 0
write_data  tip3p.data nocoeff
System init for write_data ...
Generated 1 of 1 mixed pair_coeff terms from geometric mixing rule

Total wall time: 0:03:51
