ITEM: TIMESTEP
0
ITEM: NUMBER OF ATOMS
150
ITEM: BOX BOUNDS pp pp pp
0.0000000000000000e+00 1.5000000000000000e+01
0.0000000000000000e+00 1.5000000000000000e+01
0.0000000000000000e+00 1.5000000000000000e+01
ITEM: ATOMS id type x y z q
31 1 7.85458 4.54114 2.07792 0
32 2 8.75793 4.85748 2.06769 0.241
33 2 7.85048 3.80679 1.46396 0.241
35 3 7.67441 4.32789 2.71984 -0.241
66 1 8.4906 0.316925 3.07317 0
67 2 9.08013 1.06419 3.17457 0.241
68 2 7.62187 0.707647 2.97901 0.241
21 1 10.6874 4.11967 0.768605 0
22 2 11.524 4.58032 0.832595 0.241
23 2 10.0438 4.81127 0.614654 0.241
24 3 10.5466 3.77871 1.36352 -0.241
25 3 10.695 3.6658 0.235751 -0.241
46 1 4.12004 6.79266 3.23104 0
47 2 4.54482 6.11494 3.75684 0.241
48 2 4.81866 7.41663 3.03401 0.241
49 3 3.6072 7.10184 3.59353 -0.241
50 3 3.85793 6.52057 2.64175 -0.241
34 3 7.41442 5.04273 1.86659 -0.241
127 2 5.92044 8.73626 4.92311 0.241
139 3 5.82794 6.49558 0.111821 -0.241
63 2 10.5201 9.40499 0.734672 0.241
11 1 3.5733 11.2402 2.09258 0
12 2 3.79332 12.1518 2.28403 0.241
13 2 4.34572 10.7446 2.3647 0.241
14 3 3.452 11.1533 1.40866 -0.241
15 3 3.01001 11.0399 2.45671 -0.241
113 2 0.477249 14.8485 1.23142 0.241
115 3 0.359297 13.6797 0.524443 -0.241
146 1 0.634428 12.1769 3.46156 0
147 2 1.07205 12.9512 3.81529 0.241
149 3 0.912057 11.5923 3.72836 -0.241
150 3 0.684691 12.1616 2.76353 -0.241
69 3 8.51603 14.9034 3.63742 -0.241
70 3 8.65777 14.9454 2.50394 -0.241
36 1 12.8687 13.228 0.998282 0
37 2 13.5201 13.9115 0.840676 0.241
38 2 12.0444 13.7025 1.10644 0.241
39 3 13.0241 12.867 1.57748 -0.241
40 3 12.8325 12.7904 0.453189 -0.241
81 1 14.1883 14.0915 0.651415 0
82 2 14.8588 14.3298 1.29159 0.241
84 3 13.6344 14.5165 0.703441 -0.241
85 3 13.9831 13.4286 0.743198 -0.241
111 1 14.9931 14.2631 0.64907 0
112 2 14.1881 14.0618 1.12626 0.241
114 3 14.8482 14.5816 0.0428052 -0.241
116 1 13.5977 11.5041 3.9637 0
117 2 14.4638 11.1325 4.13111 0.241
118 2 13.6379 11.8074 3.05671 0.241
119 3 13.4696 12.0382 4.39768 -0.241
120 3 13.1006 11.0172 4.03988 -0.241
148 2 14.7215 12.2722 3.73294 0.241
51 1 1.87033 4.18732 7.99524 0
52 2 2.42723 4.92975 7.76097 0.241
53 2 0.977426 4.50626 7.86396 0.241
54 3 1.97155 4.00315 8.66294 -0.241
55 3 2.00087 3.63934 7.5797 -0.241
98 2 4.77217 4.3639 7.36284 0.241
106 1 3.66152 0.278007 8.11745 0
107 2 4.49862 0.671399 8.36391 0.241
108 2 3.00294 0.89232 8.44167 0.241
110 3 3.61533 0.209924 7.4223 -0.241
2 2 9.88275 2.95919 8.54039 0.241
3 2 9.99402 4.06603 7.51354 0.241
143 2 8.12939 3.17631 9.95253 0.241
145 3 8.94365 2.17441 9.49104 -0.241
1 1 10.3659 3.2179 7.75562 0
4 3 10.2723 2.75117 7.2424 -0.241
5 3 11.0493 3.27803 7.89449 -0.241
101 1 11.4346 0.994851 6.91491 0
102 2 11.2201 0.241958 6.36412 0.241
103 2 10.6129 1.21203 7.35513 0.241
104 3 11.6555 1.53212 6.52437 -0.241
105 3 11.9285 0.827124 7.38174 -0.241
96 1 4.72126 5.25525 7.01768 0
99 3 4.05995 5.48472 7.02178 -0.241
130 3 4.89345 7.8463 5.10494 -0.241
91 1 8.95762 6.72635 6.19014 0
92 2 9.90255 6.7881 6.32985 0.241
93 2 8.59882 7.4956 6.63259 0.241
94 3 8.7038 6.13803 6.47202 -0.241
95 3 8.8071 6.74143 5.50669 -0.241
97 2 5.04923 5.18457 6.12121 0.241
100 3 5.1212 5.68942 7.3939 -0.241
126 1 5.49282 8.03439 5.41377 0
128 2 5.32446 8.41291 6.27668 0.241
129 3 5.91334 7.47721 5.46582 -0.241
26 1 14.1026 8.33719 9.0048 0
27 2 14.3521 8.43899 9.9233 0.241
28 2 14.5586 7.54574 8.71858 0.241
29 3 14.309 8.89094 8.6296 -0.241
30 3 13.4097 8.25916 8.94384 -0.241
75 3 13.9639 8.43976 9.98884 -0.241
131 1 12.3665 7.58427 5.44567 0
132 2 12.4301 8.44253 5.86468 0.241
133 2 12.3498 6.96261 6.17333 0.241
134 3 12.9206 7.46834 5.03393 -0.241
135 3 11.78 7.53699 5.06644 -0.241
109 3 3.58458 14.651 8.41892 -0.241
6 1 9.47152 11.6086 9.26477 0
7 2 9.3153 10.6655 9.31257 0.241
9 3 8.99954 11.9572 9.64649 -0.241
10 3 9.44488 11.8305 8.60139 -0.241
8 2 10.3506 11.7249 9.62526 0.241
41 1 1.57811 2.03472 14.2825 0
42 2 2.28106 2.68356 14.2494 0.241
43 2 0.773346 2.55292 14.2897 0.241
44 3 1.62729 1.64607 14.8626 -0.241
45 3 1.59915 1.61831 13.7202 -0.241
57 2 0.50678 0.777602 13.08 0.241
76 1 3.19837 0.996569 14.0149 0
77 2 4.02363 1.48055 14.0457 0.241
78 2 2.52273 1.668 14.1094 0.241
79 3 3.16293 0.53445 14.5395 -0.241
80 3 3.13061 0.661669 13.404 -0.241
141 1 8.88517 2.59648 10.0464 0
142 2 9.6358 3.18778 10.1024 0.241
144 3 8.83024 2.21067 10.6279 -0.241
56 1 14.8232 0.138718 12.878 0
58 2 14.2559 0.584976 12.2494 0.241
121 1 11.7446 0.878954 11.0696 0
122 2 12.5737 1.35715 11.083 0.241
123 2 11.083 1.55022 10.9022 0.241
124 3 11.6294 0.566175 11.6851 -0.241
125 3 11.7442 0.398815 10.5602 -0.241
136 1 6.00355 6.95929 14.6177 0
137 2 6.91279 7.23894 14.7241 0.241
138 2 5.49265 7.76329 14.7115 0.241
140 3 5.90439 6.67548 13.9856 -0.241
16 1 13.3613 8.55129 11.526 0
17 2 13.7114 9.32968 11.0927 0.241
18 2 12.4597 8.78476 11.7471 0.241
19 3 13.7276 8.40414 12.104 -0.241
20 3 13.3754 8.00044 11.0943 -0.241
61 1 10.9529 9.44762 14.882 0
62 2 11.2743 8.55869 14.7313 0.241
64 3 10.4988 9.63434 14.3831 -0.241
65 3 11.4839 9.90351 14.8966 -0.241
71 1 13.3806 8.31108 10.3538 0
72 2 13.1931 7.37259 10.3721 0.241
73 2 13.497 8.55054 11.2732 0.241
74 3 12.8462 8.66459 10.0718 -0.241
60 3 0.100055 14.5614 12.595 -0.241
86 1 6.0068 10.7279 12.8137 0
87 2 5.73623 11.554 13.2143 0.241
88 2 5.70612 10.0551 13.4245 0.241
89 3 6.70273 10.7038 12.7422 -0.241
90 3 5.70495 10.6461 12.1874 -0.241
59 3 14.4663 14.9675 13.4553 -0.241
83 2 14.618 14.1982 14.8028 0.241
ITEM: TIMESTEP
100
ITEM: NUMBER OF ATOMS
150
ITEM: BOX BOUNDS pp pp pp
-3.5767723397383655e-02 1.5035767723397388e+01
-3.5767723397383655e-02 1.5035767723397388e+01
-3.5767723397383655e-02 1.5035767723397388e+01
ITEM: ATOMS id type x y z q
31 1 7.85633 4.52704 2.05206 0
32 2 8.76408 4.84515 2.04184 0.241
33 2 7.85218 3.78912 1.43514 0.241
35 3 7.67535 4.31298 2.69718 -0.241
66 1 8.49533 0.282656 3.05212 0
67 2 9.08771 1.03363 3.15398 0.241
68 2 7.62241 0.675185 2.95736 0.241
21 1 10.7026 4.10352 0.73648 0
22 2 11.5433 4.56616 0.800617 0.241
23 2 10.0561 4.79816 0.581546 0.241
24 3 10.5612 3.76091 1.33443 -0.241
25 3 10.7103 3.64734 0.200882 -0.241
46 1 4.10396 6.78924 3.21071 0
47 2 4.53081 6.10856 3.73883 0.241
48 2 4.80593 7.41633 3.01261 0.241
49 3 3.58848 7.10017 3.57471 -0.241
50 3 3.84082 6.51604 2.61849 -0.241
34 3 7.41382 5.0308 1.83945 -0.241
127 2 5.91264 8.74196 4.91059 0.241
139 3 5.81976 6.49105 0.0768719 -0.241
63 2 10.5345 9.41429 0.702193 0.241
11 1 3.55451 11.258 2.06684 0
12 2 3.77584 12.1739 2.2592 0.241
13 2 4.33082 10.7599 2.33996 0.241
14 3 3.43281 11.1709 1.37942 -0.241
15 3 2.98839 11.057 2.43257 -0.241
113 2 0.444002 14.8839 1.20149 0.241
115 3 0.325179 13.7091 0.491384 -0.241
146 1 0.601726 12.1992 3.44233 0
147 2 1.04132 12.977 3.79782 0.241
149 3 0.880391 11.612 3.71044 -0.241
150 3 0.651947 12.1839 2.74093 -0.241
69 3 8.52086 14.9386 3.61896 -0.241
70 3 8.66349 14.9808 2.47986 -0.241
36 1 12.8819 13.2462 0.971173 0
37 2 13.5487 13.9417 0.808566 0.241
38 2 12.0662 13.7318 1.07616 0.241
39 3 13.0505 12.8926 1.54903 -0.241
40 3 12.8576 12.8155 0.419423 -0.241
81 1 13.9824 14.0789 0.61548 0
82 2 14.8937 14.3625 1.26214 0.241
84 3 13.6635 14.5495 0.671138 -0.241
85 3 14.014 13.4574 0.710809 -0.241
111 1 15.2789 14.3485 0.615777 0
112 2 14.2197 14.0928 1.09565 0.241
114 3 14.8832 14.6154 0.00734946 -0.241
116 1 13.6268 11.5233 3.94686 0
117 2 14.4972 11.1495 4.11519 0.241
118 2 13.6669 11.828 3.03555 0.241
119 3 13.4981 12.0599 4.38287 -0.241
120 3 13.1273 11.0341 4.02343 -0.241
148 2 14.7558 12.2948 3.71482 0.241
51 1 1.84342 4.17151 7.99765 0
52 2 2.40313 4.91765 7.76241 0.241
53 2 0.94635 4.49184 7.86583 0.241
54 3 1.94508 3.98642 8.66842 -0.241
55 3 1.97466 3.62106 7.58028 -0.241
98 2 4.75902 4.34922 7.36218 0.241
106 1 3.64316 0.243592 8.12033 0
107 2 4.48454 0.638772 8.36775 0.241
108 2 2.98156 0.860564 8.44592 0.241
110 3 3.59682 0.174986 7.42201 -0.241
2 2 9.89434 2.93739 8.54511 0.241
3 2 10.0061 4.04987 7.51359 0.241
143 2 8.13263 3.15574 9.96439 0.241
145 3 8.95056 2.14895 9.50033 -0.241
1 1 10.3796 3.19752 7.75678 0
4 3 10.2855 2.72867 7.24136 -0.241
5 3 11.0661 3.25787 7.89653 -0.241
101 1 11.4534 0.963784 6.91217 0
102 2 11.2379 0.20757 6.35848 0.241
103 2 10.628 1.18191 7.35451 0.241
104 3 11.6754 1.50343 6.51968 -0.241
105 3 11.9497 0.795058 7.38111 -0.241
96 1 4.70804 5.24461 7.01535 0
99 3 4.04377 5.47507 7.0196 -0.241
130 3 4.88128 7.84814 5.0936 -0.241
91 1 8.96459 6.72266 6.18392 0
92 2 9.9138 6.78486 6.32396 0.241
93 2 8.60402 7.49533 6.62832 0.241
94 3 8.70938 6.13131 6.46694 -0.241
95 3 8.81315 6.73788 5.49742 -0.241
97 2 5.03746 5.17349 6.1149 0.241
100 3 5.11015 5.68091 7.39325 -0.241
126 1 5.48328 8.03698 5.4038 0
128 2 5.31429 8.41729 6.27076 0.241
129 3 5.90558 7.47722 5.45633 -0.241
26 1 14.1384 8.3414 9.00405 0
27 2 14.384 8.44328 9.935 0.241
28 2 14.5921 7.54598 8.72457 0.241
29 3 14.3413 8.89746 8.63502 -0.241
30 3 13.4379 8.26248 8.95087 -0.241
75 3 13.9955 8.44431 10.0005 -0.241
131 1 12.3897 7.58465 5.43592 0
132 2 12.4535 8.44692 5.85669 0.241
133 2 12.3731 6.96002 6.16676 0.241
134 3 12.9463 7.46826 5.02235 -0.241
135 3 11.8006 7.53739 5.0551 -0.241
109 3 3.5661 14.6852 8.42329 -0.241
6 1 9.48089 11.6283 9.27319 0
7 2 9.32395 10.6807 9.32111 0.241
9 3 9.00651 11.9784 9.65659 -0.241
10 3 9.45444 11.8509 8.60641 -0.241
8 2 10.3644 11.7451 9.63537 0.241
41 1 1.54963 2.00878 14.3149 0
42 2 2.25627 2.66067 14.2815 0.241
43 2 0.7411 2.5295 14.3221 0.241
44 3 1.59924 1.61845 14.8976 -0.241
45 3 1.57078 1.59052 13.7501 -0.241
57 2 0.473182 0.745462 13.1067 0.241
76 1 3.17806 0.965373 14.0459 0
77 2 4.00704 1.45202 14.077 0.241
78 2 2.49903 1.64027 14.1408 0.241
79 3 3.14224 0.501136 14.573 -0.241
80 3 3.11 0.628879 13.4319 -0.241
141 1 8.89172 2.57306 10.0586 0
142 2 9.64603 3.16729 10.1149 0.241
144 3 8.83636 2.18569 10.6429 -0.241
56 1 14.8582 0.103554 12.9037 0
58 2 14.2879 0.552003 12.2718 0.241
121 1 11.7649 0.847393 11.0866 0
122 2 12.5976 1.32797 11.1002 0.241
123 2 11.0999 1.52165 10.9183 0.241
124 3 11.6492 0.532941 11.7051 -0.241
125 3 11.7643 0.365279 10.5749 -0.241
136 1 5.99646 6.9567 14.6517 0
137 2 6.90991 7.23768 14.7588 0.241
138 2 5.48298 7.76472 14.7457 0.241
140 3 5.89693 6.67143 14.0167 -0.241
16 1 13.3882 8.57133 11.6184 0
17 2 13.7411 9.33867 11.1097 0.241
18 2 12.4836 8.79098 11.7673 0.241
19 3 13.7573 8.40863 12.126 -0.241
20 3 13.4034 8.00302 11.1116 -0.241
61 1 10.9694 9.4569 14.9171 0
62 2 11.2926 8.56395 14.766 0.241
64 3 10.5128 9.64449 14.4159 -0.241
65 3 11.5031 9.91482 14.932 -0.241
71 1 13.4053 8.29968 10.3021 0
72 2 13.2205 7.37207 10.3856 0.241
73 2 13.5255 8.55513 11.291 0.241
74 3 12.8719 8.67007 10.0842 -0.241
60 3 0.0646719 14.5953 12.6195 -0.241
86 1 5.99965 10.7432 12.839 0
87 2 5.72805 11.5734 13.2416 0.241
88 2 5.69778 10.0673 13.4528 0.241
89 3 6.69896 10.7192 12.7673 -0.241
90 3 5.69616 10.6613 12.2097 -0.241
59 3 14.4993 15.0032 13.4835 -0.241
83 2 14.6522 14.2305 14.8377 0.241
ITEM: TIMESTEP
200
ITEM: NUMBER OF ATOMS
150
ITEM: BOX BOUNDS pp pp pp
-9.0765363748927186e-02 1.5090765363748947e+01
-9.0765363748927186e-02 1.5090765363748947e+01
-9.0765363748927186e-02 1.5090765363748947e+01
ITEM: ATOMS id type x y z q
31 1 7.85893 4.50535 2.0123 0
32 2 8.77318 4.82578 2.00211 0.241
33 2 7.85466 3.7621 1.39096 0.241
35 3 7.67675 4.28964 2.66209 -0.241
66 1 8.5026 0.229983 3.01966 0
67 2 9.09931 0.986305 3.12226 0.241
68 2 7.62337 0.625254 2.92422 0.241
21 1 10.726 4.07873 0.687118 0
22 2 11.5728 4.54461 0.751743 0.241
23 2 10.0747 4.77831 0.531052 0.241
24 3 10.5835 3.73378 1.28948 -0.241
25 3 10.7337 3.61936 0.147545 -0.241
46 1 4.07918 6.78405 3.1794 0
47 2 4.50903 6.09846 3.71133 0.241
48 2 4.78613 7.41568 2.97986 0.241
49 3 3.56004 7.09727 3.54612 -0.241
50 3 3.81425 6.50882 2.58285 -0.241
34 3 7.41329 5.01276 1.79803 -0.241
127 2 5.90101 8.7509 4.89169 0.241
139 3 5.80755 6.48381 0.0227701 -0.241
63 2 10.5567 9.42837 0.652484 0.241
11 1 3.52572 11.2855 2.02718 0
12 2 3.74854 12.2079 2.22089 0.241
13 2 4.30754 10.7837 2.30224 0.241
14 3 3.40329 11.1977 1.33474 -0.241
15 3 2.95559 11.083 2.39569 -0.241
113 2 0.392706 14.9378 1.15538 0.241
115 3 0.272765 13.7546 0.440404 -0.241
146 1 0.551493 12.2335 3.41269 0
147 2 0.994211 13.0169 3.77074 0.241
149 3 0.831993 11.6421 3.68291 -0.241
150 3 0.601885 12.2183 2.70625 -0.241
69 3 8.52827 14.993 3.5907 -0.241
70 3 8.67195 15.0355 2.44316 -0.241
36 1 12.8925 13.266 0.933054 0
37 2 13.5928 13.9887 0.759414 0.241
38 2 12.0996 13.7771 1.02925 0.241
39 3 13.091 12.9321 1.50574 -0.241
40 3 12.8966 12.8544 0.367694 -0.241
81 1 13.9961 14.1364 0.555508 0
82 2 14.9478 14.4124 1.2165 0.241
84 3 13.7086 14.6006 0.621585 -0.241
85 3 14.0615 13.5014 0.661497 -0.241
111 1 15.398 14.4112 0.565735 0
112 2 14.2685 14.1406 1.04862 0.241
114 3 14.9368 14.6669 -0.0474575 -0.241
116 1 13.6714 11.5526 3.92096 0
117 2 14.5482 11.1761 4.09052 0.241
118 2 13.7118 11.8596 3.00298 0.241
119 3 13.542 12.0932 4.36005 -0.241
120 3 13.1684 11.0598 3.99798 -0.241
148 2 14.8088 12.3297 3.68717 0.241
51 1 1.80213 4.14722 8.00128 0
52 2 2.36598 4.8987 7.76434 0.241
53 2 0.898583 4.46977 7.86852 0.241
54 3 1.9045 3.96091 8.67697 -0.241
55 3 1.93429 3.59283 7.58077 -0.241
98 2 4.73898 4.32635 7.3612 0.241
106 1 3.61501 0.190633 8.12486 0
107 2 4.46249 0.588585 8.37402 0.241
108 2 2.94858 0.811982 8.45277 0.241
110 3 3.56837 0.12167 7.42145 -0.241
2 2 9.9119 2.90399 8.55263 0.241
3 2 10.0245 4.02459 7.51362 0.241
143 2 8.13725 3.12389 9.9824 0.241
145 3 8.9612 2.11007 9.51483 -0.241
1 1 10.4006 3.16613 7.75865 0
4 3 10.3057 2.69387 7.23952 -0.241
5 3 11.0921 3.22703 7.89955 -0.241
101 1 11.4822 0.916071 6.90788 0
102 2 11.2652 0.15442 6.35019 0.241
103 2 10.6509 1.13589 7.35344 0.241
104 3 11.7057 1.45963 6.51245 -0.241
105 3 11.9821 0.746027 7.38027 -0.241
96 1 4.68767 5.22815 7.01181 0
99 3 4.01851 5.46017 7.01603 -0.241
130 3 4.86218 7.85081 5.07603 -0.241
91 1 8.97528 6.71699 6.17431 0
92 2 9.93133 6.77956 6.3153 0.241
93 2 8.61202 7.49519 6.62188 0.241
94 3 8.71828 6.12137 6.45953 -0.241
95 3 8.82282 6.73244 5.48284 -0.241
97 2 5.01945 5.15662 6.10486 0.241
100 3 5.0928 5.66752 7.39245 -0.241
126 1 5.46856 8.0409 5.3885 0
128 2 5.29831 8.42387 6.26174 0.241
129 3 5.89403 7.47715 5.44145 -0.241
26 1 14.1982 8.34828 8.99547 0
27 2 14.433 8.45025 9.95282 0.241
28 2 14.6438 7.54646 8.73348 0.241
29 3 14.3914 8.90761 8.64329 -0.241
30 3 13.4812 8.26786 8.96142 -0.241
75 3 14.0442 8.45112 10.0187 -0.241
131 1 12.4254 7.58526 5.42085 0
132 2 12.4897 8.45379 5.84457 0.241
133 2 12.4087 6.95609 6.15689 0.241
134 3 12.9861 7.46804 5.0044 -0.241
135 3 11.8319 7.53768 5.0374 -0.241
109 3 3.53743 14.7377 8.43013 -0.241
6 1 9.49535 11.6584 9.28613 0
7 2 9.33719 10.7041 9.33436 0.241
9 3 9.01756 12.011 9.67243 -0.241
10 3 9.4688 11.8825 8.61447 -0.241
8 2 10.3852 11.7762 9.65091 0.241
41 1 1.50567 1.96905 14.3647 0
42 2 2.21795 2.62535 14.331 0.241
43 2 0.691798 2.4931 14.372 0.241
44 3 1.55622 1.57569 14.9515 -0.241
45 3 1.52758 1.54756 13.7957 -0.241
57 2 0.421916 0.696027 13.1477 0.241
76 1 3.14705 0.917339 14.0936 0
77 2 3.9815 1.40773 14.125 0.241
78 2 2.46237 1.59718 14.1893 0.241
79 3 3.11049 0.450184 14.6247 -0.241
80 3 3.07801 0.578885 13.4751 -0.241
141 1 8.90188 2.5371 10.0773 0
142 2 9.66165 3.13554 10.134 0.241
144 3 8.84613 2.14707 10.6658 -0.241
56 1 14.9119 0.0495725 12.9431 0
58 2 14.3375 0.501131 12.3067 0.241
121 1 11.796 0.798841 11.1128 0
122 2 12.6347 1.28278 11.1265 0.241
123 2 11.1262 1.47785 10.9433 0.241
124 3 11.6795 0.482259 11.7358 -0.241
125 3 11.7954 0.313365 10.5973 -0.241
136 1 5.98549 6.95274 14.7039 0
137 2 6.90552 7.23565 14.8117 0.241
138 2 5.46822 7.7665 14.7985 0.241
140 3 5.8853 6.66551 14.0642 -0.241
16 1 13.4307 8.5902 11.7017 0
17 2 13.7867 9.35221 11.136 0.241
18 2 12.5199 8.80037 11.7985 0.241
19 3 13.8028 8.41538 12.1596 -0.241
20 3 13.4465 8.00704 11.1381 -0.241
61 1 10.9947 9.47118 14.9713 0
62 2 11.3203 8.57187 14.8189 0.241
64 3 10.5347 9.66 14.4664 -0.241
65 3 11.5323 9.93233 14.9863 -0.241
71 1 13.4376 8.29372 10.2889 0
72 2 13.2623 7.37134 10.4067 0.241
73 2 13.5695 8.56214 11.3186 0.241
74 3 12.911 8.67862 10.1032 -0.241
60 3 0.0104445 14.6472 12.6568 -0.241
86 1 5.9887 10.7669 12.8779 0
87 2 5.71517 11.603 13.2834 0.241
88 2 5.68468 10.0861 13.4961 0.241
89 3 6.6931 10.7426 12.8059 -0.241
90 3 5.68289 10.6843 12.2442 -0.241
59 3 14.5504 15.0581 13.5272 -0.241
83 2 14.7047 14.28 14.8915 0.241
ITEM: TIMESTEP
300
ITEM: NUMBER OF ATOMS
150
ITEM: BOX BOUNDS pp pp pp
-1.5320669530500197e-01 1.5153206695305020e+01
-1.5320669530500197e-01 1.5153206695305020e+01
-1.5320669530500197e-01 1.5153206695305020e+01
ITEM: ATOMS id type x y z q
31 1 7.86188 4.48071 1.96716 0
32 2 8.78345 4.80381 1.95704 0.241
33 2 7.85744 3.73145 1.34085 0.241
35 3 7.67841 4.26309 2.62225 -0.241
66 1 8.51084 0.17018 2.9828 0
67 2 9.11248 0.932489 3.08625 0.241
68 2 7.62449 0.568488 2.88658 0.241
21 1 10.7526 4.05058 0.631075 0
22 2 11.6062 4.52006 0.696269 0.241
23 2 10.096 4.7557 0.473726 0.241
24 3 10.6089 3.70306 1.23847 -0.241
25 3 10.7603 3.58769 0.086946 -0.241
46 1 4.05103 6.77816 3.14386 0
47 2 4.48423 6.08701 3.68009 0.241
48 2 4.76356 7.41493 2.94268 0.241
49 3 3.52783 7.09399 3.51371 -0.241
50 3 3.78417 6.50061 2.54237 -0.241
34 3 7.41277 4.99229 1.75092 -0.241
127 2 5.88778 8.76097 4.87023 0.241
139 3 5.79372 6.47567 -0.0386095 -0.241
63 2 10.5819 9.44443 0.595985 0.241
11 1 3.49302 11.3166 1.98216 0
12 2 3.71746 12.2465 2.17736 0.241
13 2 4.281 10.8107 2.2594 0.241
14 3 3.36988 11.2282 1.28401 -0.241
15 3 2.91843 11.1126 2.35388 -0.241
113 2 0.334593 14.9992 1.10294 0.241
115 3 0.213219 13.8063 0.382632 -0.241
146 1 0.494516 12.2725 3.37902 0
147 2 0.940748 13.0621 3.73996 0.241
149 3 0.776989 11.6763 3.65175 -0.241
150 3 0.544995 12.2573 2.66689 -0.241
69 3 8.53663 15.0548 3.55865 -0.241
70 3 8.68154 15.0977 2.40146 -0.241
36 1 12.9033 13.2866 0.890781 0
37 2 13.6429 14.0419 0.703413 0.241
38 2 12.1376 13.8285 0.975974 0.241
39 3 13.1369 12.977 1.45669 -0.241
40 3 12.9409 12.8986 0.308931 -0.241
81 1 14.0326 14.2083 0.486083 0
82 2 15.0092 14.469 1.16461 0.241
84 3 13.7598 14.6583 0.565507 -0.241
85 3 14.1154 13.5518 0.60566 -0.241
111 1 15.5134 14.4776 0.509252 0
112 2 14.3237 14.1948 0.995035 0.241
114 3 14.9974 14.7251 -0.109769 -0.241
116 1 13.722 11.5859 3.89156 0
117 2 14.606 11.2062 4.06254 0.241
118 2 13.7627 11.8954 2.966 0.241
119 3 13.592 12.1311 4.33408 -0.241
120 3 13.2152 11.089 3.96903 -0.241
148 2 14.869 12.3695 3.65575 0.241
51 1 1.75526 4.11964 8.0054 0
52 2 2.32381 4.87712 7.76653 0.241
53 2 0.844393 4.44464 7.87159 0.241
54 3 1.8584 3.93202 8.68669 -0.241
55 3 1.88844 3.56084 7.58128 -0.241
98 2 4.71619 4.30046 7.36011 0.241
106 1 3.58305 0.130506 8.13 0
107 2 4.43742 0.53153 8.38111 0.241
108 2 2.91113 0.756743 8.4605 0.241
110 3 3.53608 0.0612406 7.4208 -0.241
2 2 9.93188 2.86601 8.5611 0.241
3 2 10.0455 3.99583 7.51361 0.241
143 2 8.1425 3.08765 10.0029 0.241
145 3 8.97331 2.06605 9.53125 -0.241
1 1 10.4245 3.13049 7.76078 0
4 3 10.3285 2.65437 7.23746 -0.241
5 3 11.1215 3.19209 7.90305 -0.241
101 1 11.515 0.861896 6.903 0
102 2 11.2964 0.0941272 6.34081 0.241
103 2 10.6771 1.08369 7.35221 0.241
104 3 11.7401 1.40987 6.50419 -0.241
105 3 12.0188 0.690297 7.37934 -0.241
96 1 4.66453 5.20946 7.0078 0
99 3 3.98981 5.44316 7.01194 -0.241
130 3 4.84051 7.85392 5.05608 -0.241
91 1 8.98742 6.71055 6.16341 0
92 2 9.95116 6.77352 6.3054 0.241
93 2 8.62107 7.49497 6.61453 0.241
94 3 8.72844 6.11013 6.4512 -0.241
95 3 8.83384 6.72635 5.4663 -0.241
97 2 4.99897 5.13754 6.09352 0.241
100 3 5.07316 5.65226 7.39151 -0.241
126 1 5.45186 8.04536 5.37113 0
128 2 5.28012 8.43126 6.25145 0.241
129 3 5.88098 7.47713 5.42458 -0.241
26 1 14.2699 8.35654 8.98004 0
27 2 14.4878 8.45822 9.9731 0.241
28 2 14.7024 7.54711 8.74359 0.241
29 3 14.4483 8.91911 8.65267 -0.241
30 3 13.5304 8.27386 8.97337 -0.241
75 3 14.1003 8.45881 10.0394 -0.241
131 1 12.4659 7.58597 5.40375 0
132 2 12.5308 8.46156 5.83073 0.241
133 2 12.4491 6.95165 6.14558 0.241
134 3 13.0313 7.4678 4.98411 -0.241
135 3 11.8674 7.53802 5.01741 -0.241
109 3 3.50488 14.7974 8.43797 -0.241
6 1 9.51176 11.6926 9.30083 0
7 2 9.35219 10.7307 9.34938 0.241
9 3 9.03014 12.0479 9.69047 -0.241
10 3 9.48518 11.9184 8.62361 -0.241
8 2 10.4087 11.8115 9.66853 0.241
41 1 1.4555 1.9241 14.4213 0
42 2 2.17441 2.58522 14.3873 0.241
43 2 0.635831 2.45169 14.4285 0.241
44 3 1.50741 1.52726 15.0128 -0.241
45 3 1.47857 1.4989 13.8475 -0.241
57 2 0.363722 0.63981 13.1942 0.241
76 1 3.1121 0.862643 14.1477 0
77 2 3.95247 1.35733 14.1795 0.241
78 2 2.42064 1.54805 14.2443 0.241
79 3 3.07448 0.392411 14.6835 -0.241
80 3 3.04172 0.522219 13.5242 -0.241
141 1 8.9134 2.49627 10.0985 0
142 2 9.67936 3.0994 10.1557 0.241
144 3 8.85724 2.10331 10.6919 -0.241
56 1 14.9728 -0.0117151 12.9879 0
58 2 14.3937 0.443271 12.3464 0.241
121 1 11.8313 0.743717 11.1425 0
122 2 12.6768 1.23138 11.1563 0.241
123 2 11.156 1.42801 10.9716 0.241
124 3 11.7139 0.424822 11.7707 -0.241
125 3 11.8308 0.254512 10.6227 -0.241
136 1 5.97303 6.94824 14.7632 0
137 2 6.90049 7.23326 14.8718 0.241
138 2 5.45145 7.76843 14.8586 0.241
140 3 5.87213 6.65888 14.1182 -0.241
16 1 13.4794 8.60854 11.7805 0
17 2 13.8386 9.36766 11.1657 0.241
18 2 12.5612 8.81102 11.8339 0.241
19 3 13.8545 8.42311 12.1976 -0.241
20 3 13.4954 8.01182 11.1681 -0.241
61 1 11.0235 9.48739 15.0327 0
62 2 11.3517 8.58095 14.8791 0.241
64 3 10.5596 9.67752 14.5238 -0.241
65 3 11.5655 9.95213 15.0481 -0.241
71 1 13.4699 8.2896 10.2953 0
72 2 13.3097 7.37063 10.4307 0.241
73 2 13.6193 8.56966 11.35 0.241
74 3 12.9554 8.68832 10.125 -0.241
60 3 -0.0510984 14.7062 12.699 -0.241
86 1 5.97627 10.7937 12.9222 0
87 2 5.7006 11.6367 13.3307 0.241
88 2 5.66983 10.1074 13.5452 0.241
89 3 6.68645 10.7693 12.8498 -0.241
90 3 5.66775 10.7105 12.2834 -0.241
59 3 14.6083 15.1206 13.5767 -0.241
83 2 14.7645 14.3365 14.9527 0.241
ITEM: TIMESTEP
400
ITEM: NUMBER OF ATOMS
150
ITEM: BOX BOUNDS pp pp pp
-2.1740136748085348e-01 1.5217401367480889e+01
-2.1740136748085348e-01 1.5217401367480889e+01
-2.1740136748085348e-01 1.5217401367480889e+01
ITEM: ATOMS id type x y z q
31 1 7.86491 4.45539 1.92075 0
32 2 8.79387 4.78122 1.91081 0.241
33 2 7.86019 3.70002 1.28942 0.241
35 3 7.68023 4.23571 2.58126 -0.241
66 1 8.51932 0.108698 2.94491 0
67 2 9.12604 0.877026 3.04922 0.241
68 2 7.62573 0.510003 2.84789 0.241
21 1 10.7798 4.02165 0.573458 0
22 2 11.6406 4.49469 0.639256 0.241
23 2 10.1178 4.73231 0.414791 0.241
24 3 10.6349 3.67165 1.18608 -0.241
25 3 10.7877 3.55527 0.0245766 -0.241
46 1 4.0221 6.77211 3.10731 0
47 2 4.45861 6.0753 3.64793 0.241
48 2 4.74022 7.41413 2.90447 0.241
49 3 3.49482 7.09064 3.48045 -0.241
50 3 3.75339 6.49212 2.50075 -0.241
34 3 7.41233 4.97123 1.70238 -0.241
127 2 5.87414 8.7712 4.84818 0.241
139 3 5.77956 6.46743 -0.101637 -0.241
63 2 10.6079 9.46106 0.537794 0.241
11 1 3.45941 11.3486 1.93588 0
12 2 3.68539 12.2861 2.13255 0.241
13 2 4.25357 10.8384 2.21529 0.241
14 3 3.33571 11.2597 1.23186 -0.241
15 3 2.88037 11.143 2.31101 -0.241
113 2 0.275047 15.0624 1.04889 0.241
115 3 0.151944 13.8596 0.323408 -0.241
146 1 0.436018 12.3126 3.34439 0
147 2 0.885825 13.1084 3.70824 0.241
149 3 0.72035 11.7115 3.61984 -0.241
150 3 0.486421 12.2976 2.62648 -0.241
69 3 8.54518 15.1186 3.52576 -0.241
70 3 8.69136 15.1618 2.35853 -0.241
36 1 12.9162 13.3083 0.847172 0
37 2 13.6945 14.0965 0.645518 0.241
38 2 12.1767 13.8812 0.921168 0.241
39 3 13.1842 13.0232 1.40642 -0.241
40 3 12.9863 12.9441 0.248463 -0.241
81 1 14.075 14.2835 0.414566 0
82 2 15.0723 14.5269 1.11115 0.241
84 3 13.8126 14.7172 0.508148 -0.241
85 3 14.1708 13.6041 0.5485 -0.241
111 1 0.190685 14.544 0.451477 0
112 2 14.3802 14.2502 0.939649 0.241
114 3 15.0595 14.7846 -0.173975 -0.241
116 1 13.7739 11.6201 3.86136 0
117 2 14.6654 11.2372 4.0338 0.241
118 2 13.8149 11.9322 2.928 0.241
119 3 13.6436 12.1702 4.30732 -0.241
120 3 13.2633 11.119 3.93919 -0.241
148 2 14.931 12.4103 3.62341 0.241
51 1 1.70707 4.09128 8.00964 0
52 2 2.28049 4.85483 7.76881 0.241
53 2 0.788751 4.41869 7.87478 0.241
54 3 1.81095 3.90246 8.6967 -0.241
55 3 1.84127 3.52804 7.58171 -0.241
98 2 4.69272 4.27398 7.35901 0.241
106 1 3.5502 0.0686917 8.13528 0
107 2 4.41159 0.472751 8.38833 0.241
108 2 2.87264 0.699823 8.4684 0.241
110 3 3.50292 -0.000726433 7.42014 -0.241
2 2 9.95251 2.82687 8.56968 0.241
3 2 10.0671 3.96616 7.51353 0.241
143 2 8.14789 3.05025 10.0239 0.241
145 3 8.98581 2.02096 9.54805 -0.241
1 1 10.449 3.09387 7.76297 0
4 3 10.3518 2.61378 7.2354 -0.241
5 3 11.1517 3.15629 7.90678 -0.241
101 1 11.5487 0.806191 6.89798 0
102 2 11.3286 0.032226 6.33121 0.241
103 2 10.704 1.03011 7.35095 0.241
104 3 11.7754 1.35868 6.49563 -0.241
105 3 12.0565 0.632898 7.37841 -0.241
96 1 4.64075 5.19025 7.00367 0
99 3 3.96027 5.42554 7.00767 -0.241
130 3 4.81825 7.85725 5.03556 -0.241
91 1 8.99989 6.70393 6.1522 0
92 2 9.97144 6.76723 6.29513 0.241
93 2 8.63033 7.49464 6.60689 0.241
94 3 8.73896 6.09862 6.44277 -0.241
95 3 8.84523 6.72021 5.44932 -0.241
97 2 4.97788 5.11802 6.08191 0.241
100 3 5.05306 5.63645 7.39053 -0.241
126 1 5.43468 8.04993 5.35328 0
128 2 5.26138 8.43874 6.24081 0.241
129 3 5.86763 7.47721 5.40728 -0.241
26 1 14.3455 8.36539 8.96183 0
27 2 14.5428 8.46649 9.99402 0.241
28 2 14.7625 7.54793 8.75396 0.241
29 3 14.507 8.93088 8.66231 -0.241
30 3 13.581 8.27984 8.98562 -0.241
75 3 14.1594 8.46665 10.0607 -0.241
131 1 12.5075 7.58669 5.38617 0
132 2 12.573 8.46951 5.81636 0.241
133 2 12.4907 6.94709 6.1338 0.241
134 3 13.0778 7.46756 4.96339 -0.241
135 3 11.9038 7.53838 4.997 -0.241
109 3 3.47145 14.8589 8.44613 -0.241
6 1 9.52864 11.7278 9.31593 0
7 2 9.36754 10.7582 9.36478 0.241
9 3 9.04313 12.0858 9.70913 -0.241
10 3 9.50212 11.9552 8.63299 -0.241
8 2 10.4329 11.848 9.68659 0.241
41 1 1.40358 1.87812 14.4796 0
42 2 2.1296 2.54396 14.4451 0.241
43 2 0.57832 2.40899 14.4867 0.241
44 3 1.45726 1.47764 15.0758 -0.241
45 3 1.42825 1.44903 13.9007 -0.241
57 2 0.303913 0.581866 13.2421 0.241
76 1 3.07652 0.80618 14.2032 0
77 2 3.92258 1.30536 14.2355 0.241
78 2 2.37757 1.4972 14.3008 0.241
79 3 3.03753 0.333142 14.744 -0.241
80 3 3.00445 0.464116 13.5745 -0.241
141 1 8.92525 2.4543 10.1203 0
142 2 9.69754 3.06211 10.1781 0.241
144 3 8.86867 2.05849 10.7188 -0.241
56 1 15.0355 -0.0747239 13.0339 0
58 2 14.4516 0.38362 12.3873 0.241
121 1 11.8676 0.687046 11.173 0
122 2 12.7201 1.17837 11.187 0.241
123 2 11.1867 1.37659 11.0008 0.241
124 3 11.7493 0.365941 11.8067 -0.241
125 3 11.8672 0.194152 10.6487 -0.241
136 1 5.96022 6.94361 14.8241 0
137 2 6.89523 7.23068 14.9336 0.241
138 2 5.43416 7.77027 14.9202 0.241
140 3 5.85866 6.6522 14.1736 -0.241
16 1 13.5301 8.6265 11.8563 0
17 2 13.8919 9.38365 11.1961 0.241
18 2 12.6036 8.82195 11.8703 0.241
19 3 13.9075 8.43117 12.2364 -0.241
20 3 13.5458 8.01712 11.1991 -0.241
61 1 11.053 9.50407 15.0959 0
62 2 11.3841 8.59045 14.9408 0.241
64 3 10.585 9.69537 14.5829 -0.241
65 3 11.5996 9.97236 15.1117 -0.241
71 1 13.5006 8.28589 10.3095 0
72 2 13.3585 7.3701 10.4553 0.241
73 2 13.6706 8.57669 11.3822 0.241
74 3 13.0009 8.69829 10.1476 -0.241
60 3 -0.114332 14.767 12.7424 -0.241
86 1 5.96349 10.8214 12.9676 0
87 2 5.68567 11.6713 13.3793 0.241
88 2 5.65462 10.1293 13.5956 0.241
89 3 6.67959 10.7967 12.8951 -0.241
90 3 5.65207 10.7375 12.3237 -0.241
59 3 14.6679 15.1849 13.6277 -0.241
83 2 14.8264 14.3951 15.0159 0.241
ITEM: TIMESTEP
500
ITEM: NUMBER OF ATOMS
150
ITEM: BOX BOUNDS pp pp pp
-2.7939646620288894e-01 1.5279396466202922e+01
-2.7939646620288894e-01 1.5279396466202922e+01
-2.7939646620288894e-01 1.5279396466202922e+01
ITEM: ATOMS id type x y z q
31 1 7.86784 4.43093 1.87593 0
32 2 8.80373 4.75942 1.86632 0.241
33 2 7.8627 3.66977 1.23989 0.241
35 3 7.68218 4.20913 2.54163 -0.241
66 1 8.52751 0.0493228 2.90832 0
67 2 9.13915 0.82324 3.01346 0.241
68 2 7.62705 0.453338 2.81052 0.241
21 1 10.8062 3.99371 0.517816 0
22 2 11.6736 4.46996 0.584227 0.241
23 2 10.1389 4.7095 0.357884 0.241
24 3 10.66 3.64158 1.13556 -0.241
25 3 10.8142 3.5242 -0.0357527 -0.241
46 1 3.99416 6.76625 3.07202 0
47 2 4.43368 6.06408 3.61681 0.241
48 2 4.71742 7.4133 2.86759 0.241
49 3 3.46312 7.08742 3.44843 -0.241
50 3 3.72389 6.48387 2.46052 -0.241
34 3 7.41208 4.95088 1.65531 -0.241
127 2 5.8609 8.78088 4.82689 0.241
139 3 5.76596 6.45968 -0.16239 -0.241
63 2 10.6331 9.4773 0.481429 0.241
11 1 3.42696 11.3795 1.89118 0
12 2 3.65421 12.3242 2.08918 0.241
13 2 4.22682 10.8651 2.17262 0.241
14 3 3.30299 11.2901 1.18148 -0.241
15 3 2.84382 11.1725 2.26978 -0.241
113 2 0.217866 15.1236 0.996448 0.241
115 3 0.0926798 13.9114 0.266504 -0.241
146 1 0.379645 12.3514 3.31091 0
147 2 0.832853 13.1529 3.67752 0.241
149 3 0.665509 11.7457 3.58926 -0.241
150 3 0.429706 12.3368 2.58754 -0.241
69 3 8.55334 15.1803 3.49409 -0.241
70 3 8.70078 15.224 2.31699 -0.241
36 1 12.9291 13.3288 0.805348 0
37 2 13.7443 14.1491 0.589093 0.241
38 2 12.2147 13.9319 0.868185 0.241
39 3 13.2298 13.0681 1.3581 -0.241
40 3 13.03 12.9882 0.18998 -0.241
81 1 14.1165 14.3573 0.344905 0
82 2 15.1335 14.5826 1.05931 0.241
84 3 13.8637 14.7735 0.453237 -0.241
85 3 14.2242 13.6557 0.493701 -0.241
111 1 0.173879 14.6074 0.395987 0
112 2 14.4344 14.3033 0.885652 0.241
114 3 15.1189 14.8413 -0.236235 -0.241
116 1 13.8239 11.6531 3.83222 0
117 2 14.7227 11.2669 4.00611 0.241
118 2 13.8651 11.9676 2.89131 0.241
119 3 13.6937 12.2079 4.28136 -0.241
120 3 13.31 11.1479 3.91025 -0.241
148 2 14.991 12.4497 3.59213 0.241
51 1 1.66054 4.0639 8.01374 0
52 2 2.23872 4.83313 7.77101 0.241
53 2 0.735125 4.39343 7.8779 0.241
54 3 1.76504 3.87414 8.70641 -0.241
55 3 1.79567 3.49651 7.58199 -0.241
98 2 4.66999 4.24861 7.358 0.241
106 1 3.51847 0.00899505 8.14038 0
107 2 4.38657 0.415783 8.39519 0.241
108 2 2.83546 0.644634 8.47592 0.241
110 3 3.47096 -0.0603266 7.41949 -0.241
2 2 9.97257 2.78892 8.57779 0.241
3 2 10.0881 3.93734 7.51334 0.241
143 2 8.1531 3.01389 10.0442 0.241
145 3 8.99795 1.97769 9.56414 -0.241
1 1 10.4727 3.05851 7.76508 0
4 3 10.374 2.5746 7.23349 -0.241